 Entering Gaussian System, Link 0=gdv
 Input=7tg6+268Cl.gjf
 Output=7tg6+268Cl.log
 Initial command:
 /sw/contrib/anantram-src/gdvj26p/gdv/l1.exe "/scr/Gau-36196.inp" -scrdir="/scr/"
 Entering Link 1 = /sw/contrib/anantram-src/gdvj26p/gdv/l1.exe PID=     36197.
  
 Copyright (c) 1988-2023, Gaussian, Inc.  All Rights Reserved.
  
 This is the private, development version of
 the Gaussian(R) DV system of programs. It is based on
 the Gaussian(R) 16 system (copyright 2016, Gaussian, Inc.),
 the Gaussian(R) 09 system (copyright 2009, Gaussian, Inc.),
 the Gaussian(R) 03 system (copyright 2003, Gaussian, Inc.),
 the Gaussian(R) 98 system (copyright 1998, Gaussian, Inc.),
 the Gaussian(R) 94 system (copyright 1995, Gaussian, Inc.),
 the Gaussian 92(TM) system (copyright 1992, Gaussian, Inc.),
 the Gaussian 90(TM) system (copyright 1990, Gaussian, Inc.),
 the Gaussian 88(TM) system (copyright 1988, Gaussian, Inc.),
 the Gaussian 86(TM) system (copyright 1986, Carnegie Mellon
 University), and the Gaussian 82(TM) system (copyright 1983,
 Carnegie Mellon University). Gaussian is a federally registered
 trademark of Gaussian, Inc.
  
 This software contains proprietary and confidential information,
 including trade secrets, belonging to Gaussian, Inc.
  
 This software is provided under written license and may be
 used, copied, transmitted, or stored only in accord with that
 written license.
  
 The following legend is applicable only to US Government
 contracts under FAR:
  
                    RESTRICTED RIGHTS LEGEND
  
 Use, reproduction and disclosure by the US Government is
 subject to restrictions as set forth in subparagraphs (a)
 and (c) of the Commercial Computer Software - Restricted
 Rights clause in FAR 52.227-19.
  
 Gaussian, Inc.
 340 Quinnipiac St., Bldg. 40, Wallingford CT 06492
  
  
 ---------------------------------------------------------------
 Warning -- This program may not be used in any manner that
 competes with the business of Gaussian, Inc. or will provide
 assistance to any competitor of Gaussian, Inc.  The licensee
 of this program is prohibited from giving any competitor of
 Gaussian, Inc. access to this program.  By using this program,
 the user acknowledges that Gaussian, Inc. is engaged in the
 business of creating and licensing software in the field of
 computational chemistry and represents and warrants to the
 licensee that it is not a competitor of Gaussian, Inc. and that
 it will not use this program in any manner prohibited above.
 ---------------------------------------------------------------
  

 Cite this work as:
 Gaussian Development Version, Revision J.26+,
 M. J. Frisch, G. W. Trucks, G. Scalmani, J. R. Cheeseman, X. Li, 
 J. Bloino, B. G. Janesko, A. V. Marenich, J. Zheng, F. Lipparini, 
 A. Jenkins, A. Liu, H. Liu, H. B. Schlegel, G. E. Scuseria, 
 M. A. Robb, V. Barone, G. A. Petersson, H. Nakatsuji, B. Mennucci, 
 C. Adamo, N. Rega, M. Caricato, H. P. Hratchian, J. V. Ortiz, 
 A. F. Izmaylov, H. Hu, C. Liao, J. L. Sonnenberg, D. Williams-Young, 
 F. Ding, R. Gomperts, F. Egidi, J. Goings, B. Peng, A. Petrone, 
 T. Henderson, D. Ranasinghe, V. G. Zakrzewski, J. Gao, G. Zheng, 
 W. Liang, M. Hada, M. Ehara, K. Toyota, R. Fukuda, J. Hasegawa, 
 M. Ishida, T. Nakajima, Y. Honda, O. Kitao, H. Nakai, T. Vreven, 
 K. Throssell, J. A. Montgomery, Jr., J. E. Peralta, F. Ogliaro, 
 M. J. Bearpark, J. J. Heyd, E. N. Brothers, K. N. Kudin, 
 V. N. Staroverov, T. A. Keith, R. Kobayashi, J. Normand, 
 K. Raghavachari, A. P. Rendell, J. C. Burant, S. S. Iyengar, 
 M. Cossi, J. M. Millam, M. Klene, R. Cammi, R. L. Martin, O. Farkas, 
 J. B. Foresman, and D. J. Fox, Gaussian, Inc., Wallingford CT, 2023.
 
 *******************************************
 Gaussian DV:  ES64L-GDVRevJ.26+  9-Sep-2023
                 26-Feb-2025 
 *******************************************
 %nprocshared=40
 Will use up to   40 processors via shared memory.
 %mem=364GB
 %chk=7tg6+268Cl.chk
 ----------------------------------------------------------------------
 # b3lyp/genecp scrf=(solvent=water) 10f 6d force scf=maxcycles=500 sym
 metry=none
 ----------------------------------------------------------------------
 1/10=7,30=1,37=-1,38=1/1,3;
 2/12=2,15=3/2;
 3/5=7,8=22,11=2,16=1,17=8,25=1,30=1,70=2201,71=1,72=1,74=-5/1,2,3;
 4//1;
 5/5=2,7=500,38=5,53=1/2;
 6/7=2,8=2,9=2,10=2,28=1/1;
 7/29=1,30=1/1,2,3,16;
 1/10=7,30=1/3;
 99//99;
 ----------
 7tg6+268Cl
 ----------
 Symbolic Z-matrix:
 Charge =   -12 Multiplicity =     1
 H                     13.128    12.421   -31.608 
 O                     12.894    11.539   -31.908 
 C                     11.534    11.092   -31.767 
 H                     10.948    11.771   -32.386 
 H                     11.167    11.127   -30.741 
 C                     11.387    9.676    -32.302 
 H                     11.322    9.764    -33.387 
 O                     12.608    8.925    -32.07 
 C                     12.395    7.922    -31.112 
 H                     12.914    6.982    -31.298 
 N                     12.993    8.389    -29.769 
 C                     13.509    9.666    -29.68 
 H                     13.401    10.295   -30.551 
 C                     14.076    10.179   -28.583 
 C                     14.593    11.589   -28.537 
 H                     13.776    12.283   -28.734 
 H                     15.011    11.791   -27.551 
 H                     15.368    11.717   -29.293 
 C                     14.18     9.343    -27.429 
 O                     14.686    9.74     -26.387 
 N                     13.667    8.068    -27.575 
 H                     13.716    7.433    -26.69 
 C                     13.083    7.523    -28.698 
 O                     12.664    6.38     -28.719 
 C                     10.229    8.862    -31.732 
 H                     9.655     9.374    -30.96 
 C                     10.895    7.602    -31.13 
 H                     10.219    7.142    -30.41 
 H                     11.115    6.891    -31.926 
 O                     9.335     8.551    -32.822 
 P                     7.89      7.873    -32.609 
 O                     8.107     6.416    -32.761 
 O                     6.952     8.545    -33.538 
 O                     7.439     8.276    -31.121 
 C                     6.42      7.522    -30.452 
 H                     5.62      7.377    -31.178 
 H                     6.021     8.018    -29.568 
 C                     6.982     6.175    -30.055 
 H                     6.904     5.515    -30.919 
 O                     8.395     6.327    -29.845 
 C                     8.756     5.966    -28.544 
 H                     9.535     5.204    -28.511 
 N                     9.362     7.111    -27.857 
 C                     9.64      8.356    -28.374 
 H                     9.358     8.602    -29.387 
 N                     10.251    9.147    -27.534 
 C                     10.385    8.372    -26.388 
 C                     10.961    8.683    -25.132 
 O                     11.484    9.742    -24.763 
 N                     10.885    7.596    -24.252 
 H                     11.267    7.701    -23.334 
 C                     10.32     6.383    -24.568 
 N                     10.321    5.44     -23.622 
 H                     10.705    5.514    -22.691 
 H                     9.911     4.551    -23.871 
 N                     9.788     6.093    -25.73 
 C                     9.855     7.125    -26.587 
 C                     6.386     5.536    -28.808 
 H                     5.635     6.163    -28.328 
 C                     7.566     5.325    -27.849 
 H                     7.202     5.313    -26.822 
 H                     8.052     4.375    -28.073 
 O                     5.802     4.3      -29.154 
 P                     4.252     4.211    -29.566 
 O                     4.169     3.86     -31.003 
 O                     3.549     5.408    -29.051 
 O                     3.728     2.971    -28.715 
 C                     2.84      3.187    -27.645 
 H                     2.017     2.478    -27.735 
 H                     2.451     4.203    -27.707 
 C                     3.522     2.994    -26.3 
 H                     3.902     1.976    -26.212 
 O                     4.725     3.848    -26.201 
 C                     4.645     4.488    -24.95 
 H                     5.065     3.783    -24.232 
 N                     5.544     5.688    -24.812 
 C                     5.575     6.637    -25.799 
 H                     4.903     6.514    -26.635 
 C                     6.342     7.737    -25.744 
 C                     6.384     8.724    -26.869 
 H                     5.386     9.128    -27.036 
 H                     7.067     9.535    -26.616 
 H                     6.73      8.228    -27.776 
 C                     7.123     7.967    -24.555 
 O                     7.835     8.955    -24.416 
 N                     7.01      6.997    -23.585 
 H                     7.609     7.147    -22.687 
 C                     6.251     5.864    -23.635 
 O                     6.231     5.075    -22.714 
 C                     2.641     3.404    -25.109 
 H                     1.575     3.463    -25.329 
 C                     3.176     4.792    -24.826 
 H                     2.455     5.536    -25.164 
 H                     3.341     4.907    -23.755 
 O                     2.839     2.532    -23.967 
 P                     2.95      3.182    -22.493 
 O                     1.948     4.267    -22.345 
 O                     4.384     3.373    -22.192 
 O                     2.479     2.077    -21.457 
 C                     1.639     2.478    -20.351 
 H                     1.346     1.556    -19.848 
 H                     0.751     2.98     -20.735 
 C                     2.35      3.406    -19.338 
 H                     2.98      2.785    -18.701 
 O                     3.278     4.321    -19.987 
 C                     3.424     5.488    -19.204 
 H                     4.255     5.4      -18.504 
 N                     3.848     6.687    -20.102 
 C                     3.384     6.78     -21.411 
 H                     2.707     6.015    -21.761 
 C                     3.706     7.8      -22.249 
 C                     3.195     7.884    -23.653 
 H                     2.106     7.922    -23.642 
 H                     3.585     8.784    -24.129 
 H                     3.522     7.007    -24.212 
 C                     4.579     8.825    -21.765 
 O                     4.92      9.781    -22.462 
 N                     5.001     8.669    -20.463 
 H                     5.717     8.329    -18.131 
 C                     4.691     7.657    -19.59 
 O                     5.132     7.639    -18.453 
 C                     1.403     4.3      -18.539 
 H                     0.454     4.396    -19.067 
 C                     2.097     5.686    -18.466 
 H                     1.341     6.467    -18.383 
 H                     2.751     5.72     -17.595 
 O                     1.126     3.726    -17.235 
 P                     2.2       3.763    -16.033 
 O                     3.555     3.434    -16.526 
 O                     1.611     2.928    -14.966 
 O                     2.182     5.277    -15.511 
 C                     3.406     5.926    -15.154 
 H                     4.032     5.962    -16.045 
 H                     3.928     5.384    -14.365 
 C                     3.126     7.334    -14.687 
 H                     3.844     7.604    -13.913 
 O                     3.377     8.28     -15.763 
 C                     2.345     9.233    -15.766 
 H                     2.573     10.084   -15.123 
 N                     2.265     9.854    -17.134 
 C                     1.551     9.217    -18.13 
 H                     1.03      8.308    -17.87 
 C                     1.431     9.695    -19.379 
 C                     0.65      8.97     -20.432 
 H                    -0.386     8.866    -20.11 
 H                     0.685     9.534    -21.364 
 H                     1.082     7.982    -20.589 
 C                     2.077     10.939   -19.693 
 O                     2.016     11.445   -20.808 
 N                     2.765     11.525   -18.651 
 H                     3.248     12.475   -18.879 
 C                     2.906     11.052   -17.374 
 O                     3.549     11.656   -16.527 
 C                     1.682     7.561    -14.239 
 H                     1.083     6.654    -14.158 
 C                     1.106     8.457    -15.343 
 H                     0.29      7.937    -15.845 
 H                     0.731     9.381    -14.903 
 O                     1.681     8.211    -12.996 
 P                     1.735     7.384    -11.619 
 O                     1.889     5.948    -11.923 
 O                     0.593     7.825    -10.792 
 O                     3.043     7.942    -10.887 
 C                     2.893     8.653    -9.664 
 H                     3.27      8.011    -8.868 
 H                     1.839     8.868    -9.488 
 C                     3.676     9.957    -9.668 
 H                     4.731     9.728    -9.52 
 O                     3.62      10.584   -10.976 
 C                     2.814     11.757   -10.933 
 H                     3.364     12.674   -11.144 
 N                     1.877     11.653   -12.044 
 C                     0.955     10.656   -12.223 
 H                     0.85      9.881    -11.478 
 N                     0.274     10.753   -13.325 
 C                     0.769     11.898   -13.928 
 C                     0.393     12.497   -15.148 
 O                    -0.473     12.124   -15.95 
 N                     1.13      13.646   -15.406 
 H                     0.925     14.148   -16.246 
 C                     2.115     14.152   -14.591 
 N                     2.708     15.274   -15.022 
 H                     2.515     15.773   -15.879 
 H                     3.439     15.651   -14.437 
 N                     2.486     13.601   -13.431 
 C                     1.766     12.47    -13.168 
 C                     3.165     11.008   -8.702 
 H                     2.672     10.628   -7.807 
 C                     2.151     11.763   -9.561 
 H                     1.145     11.572   -9.188 
 H                     2.359     12.832   -9.514 
 O                     4.259     11.829   -8.288 
 P                     4.037     13.279   -7.626 
 O                     5.151     13.468   -6.671 
 O                     2.652     13.411   -7.118 
 O                     4.222     14.272   -8.867 
 C                     5.147     15.35    -8.799 
 H                     5.976     15.143   -9.476 
 H                     5.528     15.468   -7.785 
 C                     4.464     16.629   -9.225 
 H                     5.182     17.367   -9.583 
 O                     3.649     16.327   -10.38 
 C                     2.361     16.877   -10.258 
 H                     2.251     17.618   -11.05 
 N                     1.38      15.857   -10.602 
 C                     1.029     14.786   -9.83 
 H                     1.507     14.624   -8.875 
 N                     0.11      14.038   -10.36 
 C                    -0.18      14.655   -11.562 
 C                    -1.104     14.284   -12.56 
 O                    -1.865     13.309   -12.568 
 N                    -1.101     15.174   -13.625 
 H                    -1.729     14.995   -14.382 
 C                    -0.299     16.288   -13.717 
 N                    -0.444     17.029   -14.831 
 H                    -1.067     16.847   -15.605 
 H                     0.147     17.844   -14.911 
 N                     0.582     16.651   -12.78 
 C                     0.585     15.786   -11.733 
 C                     3.539     17.207   -8.159 
 H                     3.461     16.477   -7.353 
 C                     2.178     17.377   -8.823 
 H                     1.397     17.36    -8.062 
 H                     2.148     18.329   -9.352 
 O                     4.045     18.457   -7.594 
 H                     3.488     18.851   -6.919 
 H                    -4.422     13.722   -23.49 
 O                    -4.248     14.34    -22.777 
 C                    -5.284     15.224   -22.361 
 H                    -6.11      14.604   -22.012 
 H                    -5.622     15.844   -23.192 
 C                    -4.817     16.122   -21.224 
 H                    -5.526     16.945   -21.132 
 O                    -4.911     15.422   -19.969 
 C                    -3.939     15.94    -19.1 
 H                    -4.283     16.839   -18.589 
 N                    -3.731     14.952   -17.982 
 C                    -4.257     13.695   -18.095 
 H                    -4.792     13.415   -18.99 
 C                    -4.122     12.797   -17.113 
 H                    -4.544     11.8     -17.242 
 C                    -3.424     13.202   -15.936 
 N                    -3.26      12.344   -14.922 
 H                    -2.76      12.67    -14.107 
 H                    -3.629     11.406   -14.984 
 N                    -2.917     14.434   -15.805 
 C                    -3.06      15.34    -16.809 
 O                    -2.6       16.487   -16.719 
 C                    -3.369     16.607   -21.321 
 H                    -2.816     16.141   -22.136 
 C                    -2.729     16.209   -19.97 
 H                    -1.768     15.727   -20.151 
 H                    -2.579     17.101   -19.362 
 O                    -3.359     18.006   -21.516 
 P                    -2.404     18.661   -22.631 
 O                    -2.255     20.098   -22.286 
 O                    -2.902     18.278   -23.974 
 O                    -1.016     17.894   -22.43 
 C                     0.173     18.447   -22.938 
 H                    -0.092     19.208   -23.672 
 H                     0.783     17.68    -23.415 
 C                     0.965     19.088   -21.821 
 H                     0.655     20.126   -21.703 
 O                     0.62      18.46    -20.558 
 C                     1.702     17.682   -20.078 
 H                     2.079     18.049   -19.123 
 N                     1.169     16.333   -19.75 
 C                     0.54      15.6     -20.716 
 H                     0.448     15.992   -21.718 
 C                     0.031     14.395   -20.443 
 H                    -0.445     13.822   -21.239 
 C                     0.149     13.918   -19.104 
 N                    -0.344     12.723   -18.769 
 H                    -0.239     12.424   -17.81 
 H                    -0.804     12.149   -19.462 
 N                     0.753     14.632   -18.15 
 C                     1.268     15.85    -18.437 
 O                     1.837     16.534   -17.576 
 C                     2.467     18.948   -21.96 
 H                     2.795     18.815   -22.991 
 C                     2.777     17.683   -21.16 
 H                     3.229     16.939   -21.816 
 H                     3.469     17.923   -20.353 
 O                     3.114     20.09    -21.435 
 P                     4.535     20.541   -22.025 
 O                     4.556     22.019   -22.079 
 O                     4.795     19.72    -23.235 
 O                     5.545     20.111   -20.876 
 C                     5.081     20.087   -19.529 
 H                     4.364     19.272   -19.431 
 H                     4.589     21.033   -19.301 
 C                     6.219     19.869   -18.551 
 H                     5.988     20.377   -17.615 
 O                     6.279     18.481   -18.201 
 C                     7.174     17.828   -19.066 
 H                     7.834     17.128   -18.553 
 N                     6.403     16.965   -19.949 
 C                     6.144     17.142   -21.28 
 H                     6.56      17.986   -21.811 
 N                     5.425     16.177   -21.806 
 C                     5.192     15.324   -20.739 
 C                     4.487     14.114   -20.628 
 N                     3.865     13.531   -21.658 
 H                     3.372     12.66    -21.523 
 H                     3.888     13.962   -22.571 
 N                     4.454     13.521   -19.412 
 C                     5.081     14.101   -18.385 
 H                     5.065     13.646   -17.406 
 N                     5.773     15.231   -18.368 
 C                     5.785     15.797   -19.589 
 C                     7.609     20.199   -19.073 
 H                     7.625     21.018   -19.792 
 C                     8.031     18.897   -19.771 
 H                     8.322     19.113   -20.799 
 H                     8.875     18.456   -19.24 
 O                     8.471     20.586   -17.954 
 P                     9.851     19.833   -17.581 
 O                     10.366    20.533   -16.38 
 O                     10.74     19.706   -18.758 
 O                     9.403     18.373   -17.114 
 C                     9.967     17.813   -15.956 
 H                     9.283     18.049   -15.141 
 H                     10.946    18.241   -15.743 
 C                     10.097    16.306   -16.077 
 H                     9.8       15.883   -15.117 
 O                     9.135     15.769   -17.025 
 C                     9.686     14.568   -17.489 
 H                     9.53      13.784   -16.748 
 N                     8.935     14.059   -18.681 
 C                     9.003     14.74    -19.882 
 H                     9.64      15.611   -19.933 
 C                     8.367     14.339   -20.996 
 C                     8.459     15.107   -22.281 
 H                     9.5       15.159   -22.6 
 H                     7.869     14.605   -23.048 
 H                     8.075     16.116   -22.13 
 C                     7.588     13.129   -20.931 
 O                     6.974     12.69    -21.898 
 N                     7.578     12.497   -19.702 
 H                     7.629     11.441   -17.47 
 C                     8.217     12.891   -18.561 
 O                     8.139     12.252   -17.523 
 C                     11.475    15.795   -16.544 
 H                     12.15     16.594   -16.851 
 C                     11.141    14.91    -17.758 
 H                     11.746    15.219   -18.611 
 H                     11.356    13.868   -17.519 
 O                     12.117    15.056   -15.465 
 P                     13.048    13.763   -15.738 
 O                     13.727    13.449   -14.463 
 O                     13.887    13.933   -16.942 
 O                     12.006    12.591   -16.027 
 C                     11.172    12.118   -14.987 
 H                     10.195    12.581   -15.126 
 H                     11.569    12.395   -14.01 
 C                     11.024    10.609   -15.056 
 H                     10.413    10.279   -14.216 
 O                     10.25     10.259   -16.226 
 C                     11.065    9.634    -17.193 
 H                     10.734    8.628    -17.45 
 N                     10.931    10.359   -18.46 
 C                     11.451    11.585   -18.779 
 H                     12.078    12.109   -18.072 
 N                     11.162    11.983   -19.999 
 C                     10.398    10.948   -20.512 
 C                     9.778     10.75    -21.766 
 N                     9.836     11.632   -22.771 
 H                     9.371     11.433   -23.645 
 H                     10.345    12.497   -22.655 
 N                     9.092     9.603    -21.944 
 C                     9.033     8.722    -20.938 
 H                     8.49      7.796    -21.06 
 N                     9.57      8.799    -19.723 
 C                     10.245    9.945    -19.574 
 C                     12.333    9.833    -15.156 
 H                     13.187    10.397   -14.78 
 C                     12.5      9.596    -16.654 
 H                     13.467    9.98     -16.978 
 H                     12.446    8.527    -16.861 
 O                     12.246    8.609    -14.424 
 P                     13.51     7.617    -14.327 
 O                     13.378    6.83     -13.077 
 O                     14.741    8.385    -14.617 
 O                     13.262    6.573    -15.503 
 C                     12.503    5.415    -15.23 
 H                     11.706    5.707    -14.546 
 H                     13.124    4.652    -14.759 
 C                     11.893    4.85     -16.491 
 H                     10.875    4.526    -16.277 
 O                     11.74     5.901    -17.472 
 C                     12.094    5.393    -18.73 
 H                     11.241    4.946    -19.24 
 N                     12.46     6.532    -19.595 
 C                     13.197    7.554    -19.095 
 H                     13.54     7.523    -18.071 
 C                     13.51     8.608    -19.85 
 H                     14.107    9.413    -19.421 
 C                     13.038    8.621    -21.196 
 N                     13.329    9.652    -21.992 
 H                     12.978    9.628    -22.939 
 H                     13.882    10.423   -21.645 
 N                     12.301    7.619    -21.696 
 C                     11.992    6.56     -20.904 
 O                     11.321    5.604    -21.294 
 C                     12.72     3.755    -17.167 
 H                     13.574    3.421    -16.578 
 C                     13.217    4.418    -18.458 
 H                     14.307    4.435    -18.462 
 H                     12.86     3.852    -19.318 
 O                     11.892    2.633    -17.435 
 P                     12.438    1.142    -17.181 
 O                     11.483    0.442    -16.296 
 O                     13.857    1.24     -16.776 
 O                     12.386    0.474    -18.631 
 C                     11.863    1.212    -19.732 
 H                     11.707    2.245    -19.422 
 H                     10.912    0.778    -20.04 
 C                     12.826    1.183    -20.902 
 H                     12.399    0.589    -21.71 
 O                     12.959    2.501    -21.456 
 C                     14.122    2.499    -22.223 
 H                     13.908    2.153    -23.234 
 N                     14.569    3.868    -22.433 
 C                     15.226    4.675    -21.546 
 H                     15.492    4.306    -20.566 
 N                     15.53     5.858    -22.035 
 C                     15.043    5.815    -23.332 
 C                     15.04     6.753    -24.392 
 N                     15.571    7.976    -24.298 
 H                     15.539    8.603    -25.089 
 H                     16.004    8.273    -23.436 
 N                     14.467    6.379    -25.554 
 C                     13.939    5.154    -25.647 
 H                     13.477    4.834    -26.569 
 N                     13.882    4.194    -24.732 
 C                     14.453    4.59     -23.59 
 C                     14.253    0.769    -20.55 
 H                     14.506    0.96     -19.507 
 C                     15.134    1.642    -21.46 
 H                     16.096    1.814    -20.978 
 H                     15.291    1.133    -22.411 
 O                     14.44    -0.612    -20.816 
 H                     15.318   -0.948    -20.619 
 Hg                    6.239     10.725   -20.584 
 Cl                    4.06892   13.56744  -24.16075 
 Cl                    6.60436   9.97608  -18.0389 
 

 GradGradGradGradGradGradGradGradGradGradGradGradGradGradGradGradGradGrad
 Berny optimization.
 Initialization pass.
 Trust Radius=3.00D-01 FncErr=1.00D-07 GrdErr=1.00D-07 EigMax=2.50D+02 EigMin=1.00D-04
 Number of steps in this run=      2 maximum allowed number of steps=      2.
 GradGradGradGradGradGradGradGradGradGradGradGradGradGradGradGradGradGrad

 Symmetry turned off by external request.
 Stoichiometry    C137H163Cl2HgN49O82P12
                          Input orientation:                          
 ---------------------------------------------------------------------
 Center     Atomic      Atomic             Coordinates (Angstroms)
 Number     Number       Type             X           Y           Z
 ---------------------------------------------------------------------
      1          1           0       13.128000   12.421000  -31.608000
      2          8           0       12.894000   11.539000  -31.908000
      3          6           0       11.534000   11.092000  -31.767000
      4          1           0       10.948000   11.771000  -32.386000
      5          1           0       11.167000   11.127000  -30.741000
      6          6           0       11.387000    9.676000  -32.302000
      7          1           0       11.322000    9.764000  -33.387000
      8          8           0       12.608000    8.925000  -32.070000
      9          6           0       12.395000    7.922000  -31.112000
     10          1           0       12.914000    6.982000  -31.298000
     11          7           0       12.993000    8.389000  -29.769000
     12          6           0       13.509000    9.666000  -29.680000
     13          1           0       13.401000   10.295000  -30.551000
     14          6           0       14.076000   10.179000  -28.583000
     15          6           0       14.593000   11.589000  -28.537000
     16          1           0       13.776000   12.283000  -28.734000
     17          1           0       15.011000   11.791000  -27.551000
     18          1           0       15.368000   11.717000  -29.293000
     19          6           0       14.180000    9.343000  -27.429000
     20          8           0       14.686000    9.740000  -26.387000
     21          7           0       13.667000    8.068000  -27.575000
     22          1           0       13.716000    7.433000  -26.690000
     23          6           0       13.083000    7.523000  -28.698000
     24          8           0       12.664000    6.380000  -28.719000
     25          6           0       10.229000    8.862000  -31.732000
     26          1           0        9.655000    9.374000  -30.960000
     27          6           0       10.895000    7.602000  -31.130000
     28          1           0       10.219000    7.142000  -30.410000
     29          1           0       11.115000    6.891000  -31.926000
     30          8           0        9.335000    8.551000  -32.822000
     31         15           0        7.890000    7.873000  -32.609000
     32          8           0        8.107000    6.416000  -32.761000
     33          8           0        6.952000    8.545000  -33.538000
     34          8           0        7.439000    8.276000  -31.121000
     35          6           0        6.420000    7.522000  -30.452000
     36          1           0        5.620000    7.377000  -31.178000
     37          1           0        6.021000    8.018000  -29.568000
     38          6           0        6.982000    6.175000  -30.055000
     39          1           0        6.904000    5.515000  -30.919000
     40          8           0        8.395000    6.327000  -29.845000
     41          6           0        8.756000    5.966000  -28.544000
     42          1           0        9.535000    5.204000  -28.511000
     43          7           0        9.362000    7.111000  -27.857000
     44          6           0        9.640000    8.356000  -28.374000
     45          1           0        9.358000    8.602000  -29.387000
     46          7           0       10.251000    9.147000  -27.534000
     47          6           0       10.385000    8.372000  -26.388000
     48          6           0       10.961000    8.683000  -25.132000
     49          8           0       11.484000    9.742000  -24.763000
     50          7           0       10.885000    7.596000  -24.252000
     51          1           0       11.267000    7.701000  -23.334000
     52          6           0       10.320000    6.383000  -24.568000
     53          7           0       10.321000    5.440000  -23.622000
     54          1           0       10.705000    5.514000  -22.691000
     55          1           0        9.911000    4.551000  -23.871000
     56          7           0        9.788000    6.093000  -25.730000
     57          6           0        9.855000    7.125000  -26.587000
     58          6           0        6.386000    5.536000  -28.808000
     59          1           0        5.635000    6.163000  -28.328000
     60          6           0        7.566000    5.325000  -27.849000
     61          1           0        7.202000    5.313000  -26.822000
     62          1           0        8.052000    4.375000  -28.073000
     63          8           0        5.802000    4.300000  -29.154000
     64         15           0        4.252000    4.211000  -29.566000
     65          8           0        4.169000    3.860000  -31.003000
     66          8           0        3.549000    5.408000  -29.051000
     67          8           0        3.728000    2.971000  -28.715000
     68          6           0        2.840000    3.187000  -27.645000
     69          1           0        2.017000    2.478000  -27.735000
     70          1           0        2.451000    4.203000  -27.707000
     71          6           0        3.522000    2.994000  -26.300000
     72          1           0        3.902000    1.976000  -26.212000
     73          8           0        4.725000    3.848000  -26.201000
     74          6           0        4.645000    4.488000  -24.950000
     75          1           0        5.065000    3.783000  -24.232000
     76          7           0        5.544000    5.688000  -24.812000
     77          6           0        5.575000    6.637000  -25.799000
     78          1           0        4.903000    6.514000  -26.635000
     79          6           0        6.342000    7.737000  -25.744000
     80          6           0        6.384000    8.724000  -26.869000
     81          1           0        5.386000    9.128000  -27.036000
     82          1           0        7.067000    9.535000  -26.616000
     83          1           0        6.730000    8.228000  -27.776000
     84          6           0        7.123000    7.967000  -24.555000
     85          8           0        7.835000    8.955000  -24.416000
     86          7           0        7.010000    6.997000  -23.585000
     87          1           0        7.609000    7.147000  -22.687000
     88          6           0        6.251000    5.864000  -23.635000
     89          8           0        6.231000    5.075000  -22.714000
     90          6           0        2.641000    3.404000  -25.109000
     91          1           0        1.575000    3.463000  -25.329000
     92          6           0        3.176000    4.792000  -24.826000
     93          1           0        2.455000    5.536000  -25.164000
     94          1           0        3.341000    4.907000  -23.755000
     95          8           0        2.839000    2.532000  -23.967000
     96         15           0        2.950000    3.182000  -22.493000
     97          8           0        1.948000    4.267000  -22.345000
     98          8           0        4.384000    3.373000  -22.192000
     99          8           0        2.479000    2.077000  -21.457000
    100          6           0        1.639000    2.478000  -20.351000
    101          1           0        1.346000    1.556000  -19.848000
    102          1           0        0.751000    2.980000  -20.735000
    103          6           0        2.350000    3.406000  -19.338000
    104          1           0        2.980000    2.785000  -18.701000
    105          8           0        3.278000    4.321000  -19.987000
    106          6           0        3.424000    5.488000  -19.204000
    107          1           0        4.255000    5.400000  -18.504000
    108          7           0        3.848000    6.687000  -20.102000
    109          6           0        3.384000    6.780000  -21.411000
    110          1           0        2.707000    6.015000  -21.761000
    111          6           0        3.706000    7.800000  -22.249000
    112          6           0        3.195000    7.884000  -23.653000
    113          1           0        2.106000    7.922000  -23.642000
    114          1           0        3.585000    8.784000  -24.129000
    115          1           0        3.522000    7.007000  -24.212000
    116          6           0        4.579000    8.825000  -21.765000
    117          8           0        4.920000    9.781000  -22.462000
    118          7           0        5.001000    8.669000  -20.463000
    119          1           0        5.717000    8.329000  -18.131000
    120          6           0        4.691000    7.657000  -19.590000
    121          8           0        5.132000    7.639000  -18.453000
    122          6           0        1.403000    4.300000  -18.539000
    123          1           0        0.454000    4.396000  -19.067000
    124          6           0        2.097000    5.686000  -18.466000
    125          1           0        1.341000    6.467000  -18.383000
    126          1           0        2.751000    5.720000  -17.595000
    127          8           0        1.126000    3.726000  -17.235000
    128         15           0        2.200000    3.763000  -16.033000
    129          8           0        3.555000    3.434000  -16.526000
    130          8           0        1.611000    2.928000  -14.966000
    131          8           0        2.182000    5.277000  -15.511000
    132          6           0        3.406000    5.926000  -15.154000
    133          1           0        4.032000    5.962000  -16.045000
    134          1           0        3.928000    5.384000  -14.365000
    135          6           0        3.126000    7.334000  -14.687000
    136          1           0        3.844000    7.604000  -13.913000
    137          8           0        3.377000    8.280000  -15.763000
    138          6           0        2.345000    9.233000  -15.766000
    139          1           0        2.573000   10.084000  -15.123000
    140          7           0        2.265000    9.854000  -17.134000
    141          6           0        1.551000    9.217000  -18.130000
    142          1           0        1.030000    8.308000  -17.870000
    143          6           0        1.431000    9.695000  -19.379000
    144          6           0        0.650000    8.970000  -20.432000
    145          1           0       -0.386000    8.866000  -20.110000
    146          1           0        0.685000    9.534000  -21.364000
    147          1           0        1.082000    7.982000  -20.589000
    148          6           0        2.077000   10.939000  -19.693000
    149          8           0        2.016000   11.445000  -20.808000
    150          7           0        2.765000   11.525000  -18.651000
    151          1           0        3.248000   12.475000  -18.879000
    152          6           0        2.906000   11.052000  -17.374000
    153          8           0        3.549000   11.656000  -16.527000
    154          6           0        1.682000    7.561000  -14.239000
    155          1           0        1.083000    6.654000  -14.158000
    156          6           0        1.106000    8.457000  -15.343000
    157          1           0        0.290000    7.937000  -15.845000
    158          1           0        0.731000    9.381000  -14.903000
    159          8           0        1.681000    8.211000  -12.996000
    160         15           0        1.735000    7.384000  -11.619000
    161          8           0        1.889000    5.948000  -11.923000
    162          8           0        0.593000    7.825000  -10.792000
    163          8           0        3.043000    7.942000  -10.887000
    164          6           0        2.893000    8.653000   -9.664000
    165          1           0        3.270000    8.011000   -8.868000
    166          1           0        1.839000    8.868000   -9.488000
    167          6           0        3.676000    9.957000   -9.668000
    168          1           0        4.731000    9.728000   -9.520000
    169          8           0        3.620000   10.584000  -10.976000
    170          6           0        2.814000   11.757000  -10.933000
    171          1           0        3.364000   12.674000  -11.144000
    172          7           0        1.877000   11.653000  -12.044000
    173          6           0        0.955000   10.656000  -12.223000
    174          1           0        0.850000    9.881000  -11.478000
    175          7           0        0.274000   10.753000  -13.325000
    176          6           0        0.769000   11.898000  -13.928000
    177          6           0        0.393000   12.497000  -15.148000
    178          8           0       -0.473000   12.124000  -15.950000
    179          7           0        1.130000   13.646000  -15.406000
    180          1           0        0.925000   14.148000  -16.246000
    181          6           0        2.115000   14.152000  -14.591000
    182          7           0        2.708000   15.274000  -15.022000
    183          1           0        2.515000   15.773000  -15.879000
    184          1           0        3.439000   15.651000  -14.437000
    185          7           0        2.486000   13.601000  -13.431000
    186          6           0        1.766000   12.470000  -13.168000
    187          6           0        3.165000   11.008000   -8.702000
    188          1           0        2.672000   10.628000   -7.807000
    189          6           0        2.151000   11.763000   -9.561000
    190          1           0        1.145000   11.572000   -9.188000
    191          1           0        2.359000   12.832000   -9.514000
    192          8           0        4.259000   11.829000   -8.288000
    193         15           0        4.037000   13.279000   -7.626000
    194          8           0        5.151000   13.468000   -6.671000
    195          8           0        2.652000   13.411000   -7.118000
    196          8           0        4.222000   14.272000   -8.867000
    197          6           0        5.147000   15.350000   -8.799000
    198          1           0        5.976000   15.143000   -9.476000
    199          1           0        5.528000   15.468000   -7.785000
    200          6           0        4.464000   16.629000   -9.225000
    201          1           0        5.182000   17.367000   -9.583000
    202          8           0        3.649000   16.327000  -10.380000
    203          6           0        2.361000   16.877000  -10.258000
    204          1           0        2.251000   17.618000  -11.050000
    205          7           0        1.380000   15.857000  -10.602000
    206          6           0        1.029000   14.786000   -9.830000
    207          1           0        1.507000   14.624000   -8.875000
    208          7           0        0.110000   14.038000  -10.360000
    209          6           0       -0.180000   14.655000  -11.562000
    210          6           0       -1.104000   14.284000  -12.560000
    211          8           0       -1.865000   13.309000  -12.568000
    212          7           0       -1.101000   15.174000  -13.625000
    213          1           0       -1.729000   14.995000  -14.382000
    214          6           0       -0.299000   16.288000  -13.717000
    215          7           0       -0.444000   17.029000  -14.831000
    216          1           0       -1.067000   16.847000  -15.605000
    217          1           0        0.147000   17.844000  -14.911000
    218          7           0        0.582000   16.651000  -12.780000
    219          6           0        0.585000   15.786000  -11.733000
    220          6           0        3.539000   17.207000   -8.159000
    221          1           0        3.461000   16.477000   -7.353000
    222          6           0        2.178000   17.377000   -8.823000
    223          1           0        1.397000   17.360000   -8.062000
    224          1           0        2.148000   18.329000   -9.352000
    225          8           0        4.045000   18.457000   -7.594000
    226          1           0        3.488000   18.851000   -6.919000
    227          1           0       -4.422000   13.722000  -23.490000
    228          8           0       -4.248000   14.340000  -22.777000
    229          6           0       -5.284000   15.224000  -22.361000
    230          1           0       -6.110000   14.604000  -22.012000
    231          1           0       -5.622000   15.844000  -23.192000
    232          6           0       -4.817000   16.122000  -21.224000
    233          1           0       -5.526000   16.945000  -21.132000
    234          8           0       -4.911000   15.422000  -19.969000
    235          6           0       -3.939000   15.940000  -19.100000
    236          1           0       -4.283000   16.839000  -18.589000
    237          7           0       -3.731000   14.952000  -17.982000
    238          6           0       -4.257000   13.695000  -18.095000
    239          1           0       -4.792000   13.415000  -18.990000
    240          6           0       -4.122000   12.797000  -17.113000
    241          1           0       -4.544000   11.800000  -17.242000
    242          6           0       -3.424000   13.202000  -15.936000
    243          7           0       -3.260000   12.344000  -14.922000
    244          1           0       -2.760000   12.670000  -14.107000
    245          1           0       -3.629000   11.406000  -14.984000
    246          7           0       -2.917000   14.434000  -15.805000
    247          6           0       -3.060000   15.340000  -16.809000
    248          8           0       -2.600000   16.487000  -16.719000
    249          6           0       -3.369000   16.607000  -21.321000
    250          1           0       -2.816000   16.141000  -22.136000
    251          6           0       -2.729000   16.209000  -19.970000
    252          1           0       -1.768000   15.727000  -20.151000
    253          1           0       -2.579000   17.101000  -19.362000
    254          8           0       -3.359000   18.006000  -21.516000
    255         15           0       -2.404000   18.661000  -22.631000
    256          8           0       -2.255000   20.098000  -22.286000
    257          8           0       -2.902000   18.278000  -23.974000
    258          8           0       -1.016000   17.894000  -22.430000
    259          6           0        0.173000   18.447000  -22.938000
    260          1           0       -0.092000   19.208000  -23.672000
    261          1           0        0.783000   17.680000  -23.415000
    262          6           0        0.965000   19.088000  -21.821000
    263          1           0        0.655000   20.126000  -21.703000
    264          8           0        0.620000   18.460000  -20.558000
    265          6           0        1.702000   17.682000  -20.078000
    266          1           0        2.079000   18.049000  -19.123000
    267          7           0        1.169000   16.333000  -19.750000
    268          6           0        0.540000   15.600000  -20.716000
    269          1           0        0.448000   15.992000  -21.718000
    270          6           0        0.031000   14.395000  -20.443000
    271          1           0       -0.445000   13.822000  -21.239000
    272          6           0        0.149000   13.918000  -19.104000
    273          7           0       -0.344000   12.723000  -18.769000
    274          1           0       -0.239000   12.424000  -17.810000
    275          1           0       -0.804000   12.149000  -19.462000
    276          7           0        0.753000   14.632000  -18.150000
    277          6           0        1.268000   15.850000  -18.437000
    278          8           0        1.837000   16.534000  -17.576000
    279          6           0        2.467000   18.948000  -21.960000
    280          1           0        2.795000   18.815000  -22.991000
    281          6           0        2.777000   17.683000  -21.160000
    282          1           0        3.229000   16.939000  -21.816000
    283          1           0        3.469000   17.923000  -20.353000
    284          8           0        3.114000   20.090000  -21.435000
    285         15           0        4.535000   20.541000  -22.025000
    286          8           0        4.556000   22.019000  -22.079000
    287          8           0        4.795000   19.720000  -23.235000
    288          8           0        5.545000   20.111000  -20.876000
    289          6           0        5.081000   20.087000  -19.529000
    290          1           0        4.364000   19.272000  -19.431000
    291          1           0        4.589000   21.033000  -19.301000
    292          6           0        6.219000   19.869000  -18.551000
    293          1           0        5.988000   20.377000  -17.615000
    294          8           0        6.279000   18.481000  -18.201000
    295          6           0        7.174000   17.828000  -19.066000
    296          1           0        7.834000   17.128000  -18.553000
    297          7           0        6.403000   16.965000  -19.949000
    298          6           0        6.144000   17.142000  -21.280000
    299          1           0        6.560000   17.986000  -21.811000
    300          7           0        5.425000   16.177000  -21.806000
    301          6           0        5.192000   15.324000  -20.739000
    302          6           0        4.487000   14.114000  -20.628000
    303          7           0        3.865000   13.531000  -21.658000
    304          1           0        3.372000   12.660000  -21.523000
    305          1           0        3.888000   13.962000  -22.571000
    306          7           0        4.454000   13.521000  -19.412000
    307          6           0        5.081000   14.101000  -18.385000
    308          1           0        5.065000   13.646000  -17.406000
    309          7           0        5.773000   15.231000  -18.368000
    310          6           0        5.785000   15.797000  -19.589000
    311          6           0        7.609000   20.199000  -19.073000
    312          1           0        7.625000   21.018000  -19.792000
    313          6           0        8.031000   18.897000  -19.771000
    314          1           0        8.322000   19.113000  -20.799000
    315          1           0        8.875000   18.456000  -19.240000
    316          8           0        8.471000   20.586000  -17.954000
    317         15           0        9.851000   19.833000  -17.581000
    318          8           0       10.366000   20.533000  -16.380000
    319          8           0       10.740000   19.706000  -18.758000
    320          8           0        9.403000   18.373000  -17.114000
    321          6           0        9.967000   17.813000  -15.956000
    322          1           0        9.283000   18.049000  -15.141000
    323          1           0       10.946000   18.241000  -15.743000
    324          6           0       10.097000   16.306000  -16.077000
    325          1           0        9.800000   15.883000  -15.117000
    326          8           0        9.135000   15.769000  -17.025000
    327          6           0        9.686000   14.568000  -17.489000
    328          1           0        9.530000   13.784000  -16.748000
    329          7           0        8.935000   14.059000  -18.681000
    330          6           0        9.003000   14.740000  -19.882000
    331          1           0        9.640000   15.611000  -19.933000
    332          6           0        8.367000   14.339000  -20.996000
    333          6           0        8.459000   15.107000  -22.281000
    334          1           0        9.500000   15.159000  -22.600000
    335          1           0        7.869000   14.605000  -23.048000
    336          1           0        8.075000   16.116000  -22.130000
    337          6           0        7.588000   13.129000  -20.931000
    338          8           0        6.974000   12.690000  -21.898000
    339          7           0        7.578000   12.497000  -19.702000
    340          1           0        7.629000   11.441000  -17.470000
    341          6           0        8.217000   12.891000  -18.561000
    342          8           0        8.139000   12.252000  -17.523000
    343          6           0       11.475000   15.795000  -16.544000
    344          1           0       12.150000   16.594000  -16.851000
    345          6           0       11.141000   14.910000  -17.758000
    346          1           0       11.746000   15.219000  -18.611000
    347          1           0       11.356000   13.868000  -17.519000
    348          8           0       12.117000   15.056000  -15.465000
    349         15           0       13.048000   13.763000  -15.738000
    350          8           0       13.727000   13.449000  -14.463000
    351          8           0       13.887000   13.933000  -16.942000
    352          8           0       12.006000   12.591000  -16.027000
    353          6           0       11.172000   12.118000  -14.987000
    354          1           0       10.195000   12.581000  -15.126000
    355          1           0       11.569000   12.395000  -14.010000
    356          6           0       11.024000   10.609000  -15.056000
    357          1           0       10.413000   10.279000  -14.216000
    358          8           0       10.250000   10.259000  -16.226000
    359          6           0       11.065000    9.634000  -17.193000
    360          1           0       10.734000    8.628000  -17.450000
    361          7           0       10.931000   10.359000  -18.460000
    362          6           0       11.451000   11.585000  -18.779000
    363          1           0       12.078000   12.109000  -18.072000
    364          7           0       11.162000   11.983000  -19.999000
    365          6           0       10.398000   10.948000  -20.512000
    366          6           0        9.778000   10.750000  -21.766000
    367          7           0        9.836000   11.632000  -22.771000
    368          1           0        9.371000   11.433000  -23.645000
    369          1           0       10.345000   12.497000  -22.655000
    370          7           0        9.092000    9.603000  -21.944000
    371          6           0        9.033000    8.722000  -20.938000
    372          1           0        8.490000    7.796000  -21.060000
    373          7           0        9.570000    8.799000  -19.723000
    374          6           0       10.245000    9.945000  -19.574000
    375          6           0       12.333000    9.833000  -15.156000
    376          1           0       13.187000   10.397000  -14.780000
    377          6           0       12.500000    9.596000  -16.654000
    378          1           0       13.467000    9.980000  -16.978000
    379          1           0       12.446000    8.527000  -16.861000
    380          8           0       12.246000    8.609000  -14.424000
    381         15           0       13.510000    7.617000  -14.327000
    382          8           0       13.378000    6.830000  -13.077000
    383          8           0       14.741000    8.385000  -14.617000
    384          8           0       13.262000    6.573000  -15.503000
    385          6           0       12.503000    5.415000  -15.230000
    386          1           0       11.706000    5.707000  -14.546000
    387          1           0       13.124000    4.652000  -14.759000
    388          6           0       11.893000    4.850000  -16.491000
    389          1           0       10.875000    4.526000  -16.277000
    390          8           0       11.740000    5.901000  -17.472000
    391          6           0       12.094000    5.393000  -18.730000
    392          1           0       11.241000    4.946000  -19.240000
    393          7           0       12.460000    6.532000  -19.595000
    394          6           0       13.197000    7.554000  -19.095000
    395          1           0       13.540000    7.523000  -18.071000
    396          6           0       13.510000    8.608000  -19.850000
    397          1           0       14.107000    9.413000  -19.421000
    398          6           0       13.038000    8.621000  -21.196000
    399          7           0       13.329000    9.652000  -21.992000
    400          1           0       12.978000    9.628000  -22.939000
    401          1           0       13.882000   10.423000  -21.645000
    402          7           0       12.301000    7.619000  -21.696000
    403          6           0       11.992000    6.560000  -20.904000
    404          8           0       11.321000    5.604000  -21.294000
    405          6           0       12.720000    3.755000  -17.167000
    406          1           0       13.574000    3.421000  -16.578000
    407          6           0       13.217000    4.418000  -18.458000
    408          1           0       14.307000    4.435000  -18.462000
    409          1           0       12.860000    3.852000  -19.318000
    410          8           0       11.892000    2.633000  -17.435000
    411         15           0       12.438000    1.142000  -17.181000
    412          8           0       11.483000    0.442000  -16.296000
    413          8           0       13.857000    1.240000  -16.776000
    414          8           0       12.386000    0.474000  -18.631000
    415          6           0       11.863000    1.212000  -19.732000
    416          1           0       11.707000    2.245000  -19.422000
    417          1           0       10.912000    0.778000  -20.040000
    418          6           0       12.826000    1.183000  -20.902000
    419          1           0       12.399000    0.589000  -21.710000
    420          8           0       12.959000    2.501000  -21.456000
    421          6           0       14.122000    2.499000  -22.223000
    422          1           0       13.908000    2.153000  -23.234000
    423          7           0       14.569000    3.868000  -22.433000
    424          6           0       15.226000    4.675000  -21.546000
    425          1           0       15.492000    4.306000  -20.566000
    426          7           0       15.530000    5.858000  -22.035000
    427          6           0       15.043000    5.815000  -23.332000
    428          6           0       15.040000    6.753000  -24.392000
    429          7           0       15.571000    7.976000  -24.298000
    430          1           0       15.539000    8.603000  -25.089000
    431          1           0       16.004000    8.273000  -23.436000
    432          7           0       14.467000    6.379000  -25.554000
    433          6           0       13.939000    5.154000  -25.647000
    434          1           0       13.477000    4.834000  -26.569000
    435          7           0       13.882000    4.194000  -24.732000
    436          6           0       14.453000    4.590000  -23.590000
    437          6           0       14.253000    0.769000  -20.550000
    438          1           0       14.506000    0.960000  -19.507000
    439          6           0       15.134000    1.642000  -21.460000
    440          1           0       16.096000    1.814000  -20.978000
    441          1           0       15.291000    1.133000  -22.411000
    442          8           0       14.440000   -0.612000  -20.816000
    443          1           0       15.318000   -0.948000  -20.619000
    444         80           0        6.239000   10.725000  -20.584000
    445         17           0        4.068922   13.567443  -24.160748
    446         17           0        6.604362    9.976080  -18.038901
 ---------------------------------------------------------------------
 Rotational constants (GHZ):           0.0029167           0.0018409           0.0016876
 General  basis read from cards:  (6D, 10F)
 ======================================================================================================
                                       Pseudopotential Parameters
 ======================================================================================================
  Center     Atomic      Valence      Angular      Power
  Number     Number     Electrons     Momentum     of R      Exponent        Coefficient   SO-Coeffient
 ======================================================================================================
    1          1
                                   No pseudopotential on this center.
    2          8
                                   No pseudopotential on this center.
    3          6
                                   No pseudopotential on this center.
    4          1
                                   No pseudopotential on this center.
    5          1
                                   No pseudopotential on this center.
    6          6
                                   No pseudopotential on this center.
    7          1
                                   No pseudopotential on this center.
    8          8
                                   No pseudopotential on this center.
    9          6
                                   No pseudopotential on this center.
   10          1
                                   No pseudopotential on this center.
   11          7
                                   No pseudopotential on this center.
   12          6
                                   No pseudopotential on this center.
   13          1
                                   No pseudopotential on this center.
   14          6
                                   No pseudopotential on this center.
   15          6
                                   No pseudopotential on this center.
   16          1
                                   No pseudopotential on this center.
   17          1
                                   No pseudopotential on this center.
   18          1
                                   No pseudopotential on this center.
   19          6
                                   No pseudopotential on this center.
   20          8
                                   No pseudopotential on this center.
   21          7
                                   No pseudopotential on this center.
   22          1
                                   No pseudopotential on this center.
   23          6
                                   No pseudopotential on this center.
   24          8
                                   No pseudopotential on this center.
   25          6
                                   No pseudopotential on this center.
   26          1
                                   No pseudopotential on this center.
   27          6
                                   No pseudopotential on this center.
   28          1
                                   No pseudopotential on this center.
   29          1
                                   No pseudopotential on this center.
   30          8
                                   No pseudopotential on this center.
   31         15
                                   No pseudopotential on this center.
   32          8
                                   No pseudopotential on this center.
   33          8
                                   No pseudopotential on this center.
   34          8
                                   No pseudopotential on this center.
   35          6
                                   No pseudopotential on this center.
   36          1
                                   No pseudopotential on this center.
   37          1
                                   No pseudopotential on this center.
   38          6
                                   No pseudopotential on this center.
   39          1
                                   No pseudopotential on this center.
   40          8
                                   No pseudopotential on this center.
   41          6
                                   No pseudopotential on this center.
   42          1
                                   No pseudopotential on this center.
   43          7
                                   No pseudopotential on this center.
   44          6
                                   No pseudopotential on this center.
   45          1
                                   No pseudopotential on this center.
   46          7
                                   No pseudopotential on this center.
   47          6
                                   No pseudopotential on this center.
   48          6
                                   No pseudopotential on this center.
   49          8
                                   No pseudopotential on this center.
   50          7
                                   No pseudopotential on this center.
   51          1
                                   No pseudopotential on this center.
   52          6
                                   No pseudopotential on this center.
   53          7
                                   No pseudopotential on this center.
   54          1
                                   No pseudopotential on this center.
   55          1
                                   No pseudopotential on this center.
   56          7
                                   No pseudopotential on this center.
   57          6
                                   No pseudopotential on this center.
   58          6
                                   No pseudopotential on this center.
   59          1
                                   No pseudopotential on this center.
   60          6
                                   No pseudopotential on this center.
   61          1
                                   No pseudopotential on this center.
   62          1
                                   No pseudopotential on this center.
   63          8
                                   No pseudopotential on this center.
   64         15
                                   No pseudopotential on this center.
   65          8
                                   No pseudopotential on this center.
   66          8
                                   No pseudopotential on this center.
   67          8
                                   No pseudopotential on this center.
   68          6
                                   No pseudopotential on this center.
   69          1
                                   No pseudopotential on this center.
   70          1
                                   No pseudopotential on this center.
   71          6
                                   No pseudopotential on this center.
   72          1
                                   No pseudopotential on this center.
   73          8
                                   No pseudopotential on this center.
   74          6
                                   No pseudopotential on this center.
   75          1
                                   No pseudopotential on this center.
   76          7
                                   No pseudopotential on this center.
   77          6
                                   No pseudopotential on this center.
   78          1
                                   No pseudopotential on this center.
   79          6
                                   No pseudopotential on this center.
   80          6
                                   No pseudopotential on this center.
   81          1
                                   No pseudopotential on this center.
   82          1
                                   No pseudopotential on this center.
   83          1
                                   No pseudopotential on this center.
   84          6
                                   No pseudopotential on this center.
   85          8
                                   No pseudopotential on this center.
   86          7
                                   No pseudopotential on this center.
   87          1
                                   No pseudopotential on this center.
   88          6
                                   No pseudopotential on this center.
   89          8
                                   No pseudopotential on this center.
   90          6
                                   No pseudopotential on this center.
   91          1
                                   No pseudopotential on this center.
   92          6
                                   No pseudopotential on this center.
   93          1
                                   No pseudopotential on this center.
   94          1
                                   No pseudopotential on this center.
   95          8
                                   No pseudopotential on this center.
   96         15
                                   No pseudopotential on this center.
   97          8
                                   No pseudopotential on this center.
   98          8
                                   No pseudopotential on this center.
   99          8
                                   No pseudopotential on this center.
  100          6
                                   No pseudopotential on this center.
  101          1
                                   No pseudopotential on this center.
  102          1
                                   No pseudopotential on this center.
  103          6
                                   No pseudopotential on this center.
  104          1
                                   No pseudopotential on this center.
  105          8
                                   No pseudopotential on this center.
  106          6
                                   No pseudopotential on this center.
  107          1
                                   No pseudopotential on this center.
  108          7
                                   No pseudopotential on this center.
  109          6
                                   No pseudopotential on this center.
  110          1
                                   No pseudopotential on this center.
  111          6
                                   No pseudopotential on this center.
  112          6
                                   No pseudopotential on this center.
  113          1
                                   No pseudopotential on this center.
  114          1
                                   No pseudopotential on this center.
  115          1
                                   No pseudopotential on this center.
  116          6
                                   No pseudopotential on this center.
  117          8
                                   No pseudopotential on this center.
  118          7
                                   No pseudopotential on this center.
  119          1
                                   No pseudopotential on this center.
  120          6
                                   No pseudopotential on this center.
  121          8
                                   No pseudopotential on this center.
  122          6
                                   No pseudopotential on this center.
  123          1
                                   No pseudopotential on this center.
  124          6
                                   No pseudopotential on this center.
  125          1
                                   No pseudopotential on this center.
  126          1
                                   No pseudopotential on this center.
  127          8
                                   No pseudopotential on this center.
  128         15
                                   No pseudopotential on this center.
  129          8
                                   No pseudopotential on this center.
  130          8
                                   No pseudopotential on this center.
  131          8
                                   No pseudopotential on this center.
  132          6
                                   No pseudopotential on this center.
  133          1
                                   No pseudopotential on this center.
  134          1
                                   No pseudopotential on this center.
  135          6
                                   No pseudopotential on this center.
  136          1
                                   No pseudopotential on this center.
  137          8
                                   No pseudopotential on this center.
  138          6
                                   No pseudopotential on this center.
  139          1
                                   No pseudopotential on this center.
  140          7
                                   No pseudopotential on this center.
  141          6
                                   No pseudopotential on this center.
  142          1
                                   No pseudopotential on this center.
  143          6
                                   No pseudopotential on this center.
  144          6
                                   No pseudopotential on this center.
  145          1
                                   No pseudopotential on this center.
  146          1
                                   No pseudopotential on this center.
  147          1
                                   No pseudopotential on this center.
  148          6
                                   No pseudopotential on this center.
  149          8
                                   No pseudopotential on this center.
  150          7
                                   No pseudopotential on this center.
  151          1
                                   No pseudopotential on this center.
  152          6
                                   No pseudopotential on this center.
  153          8
                                   No pseudopotential on this center.
  154          6
                                   No pseudopotential on this center.
  155          1
                                   No pseudopotential on this center.
  156          6
                                   No pseudopotential on this center.
  157          1
                                   No pseudopotential on this center.
  158          1
                                   No pseudopotential on this center.
  159          8
                                   No pseudopotential on this center.
  160         15
                                   No pseudopotential on this center.
  161          8
                                   No pseudopotential on this center.
  162          8
                                   No pseudopotential on this center.
  163          8
                                   No pseudopotential on this center.
  164          6
                                   No pseudopotential on this center.
  165          1
                                   No pseudopotential on this center.
  166          1
                                   No pseudopotential on this center.
  167          6
                                   No pseudopotential on this center.
  168          1
                                   No pseudopotential on this center.
  169          8
                                   No pseudopotential on this center.
  170          6
                                   No pseudopotential on this center.
  171          1
                                   No pseudopotential on this center.
  172          7
                                   No pseudopotential on this center.
  173          6
                                   No pseudopotential on this center.
  174          1
                                   No pseudopotential on this center.
  175          7
                                   No pseudopotential on this center.
  176          6
                                   No pseudopotential on this center.
  177          6
                                   No pseudopotential on this center.
  178          8
                                   No pseudopotential on this center.
  179          7
                                   No pseudopotential on this center.
  180          1
                                   No pseudopotential on this center.
  181          6
                                   No pseudopotential on this center.
  182          7
                                   No pseudopotential on this center.
  183          1
                                   No pseudopotential on this center.
  184          1
                                   No pseudopotential on this center.
  185          7
                                   No pseudopotential on this center.
  186          6
                                   No pseudopotential on this center.
  187          6
                                   No pseudopotential on this center.
  188          1
                                   No pseudopotential on this center.
  189          6
                                   No pseudopotential on this center.
  190          1
                                   No pseudopotential on this center.
  191          1
                                   No pseudopotential on this center.
  192          8
                                   No pseudopotential on this center.
  193         15
                                   No pseudopotential on this center.
  194          8
                                   No pseudopotential on this center.
  195          8
                                   No pseudopotential on this center.
  196          8
                                   No pseudopotential on this center.
  197          6
                                   No pseudopotential on this center.
  198          1
                                   No pseudopotential on this center.
  199          1
                                   No pseudopotential on this center.
  200          6
                                   No pseudopotential on this center.
  201          1
                                   No pseudopotential on this center.
  202          8
                                   No pseudopotential on this center.
  203          6
                                   No pseudopotential on this center.
  204          1
                                   No pseudopotential on this center.
  205          7
                                   No pseudopotential on this center.
  206          6
                                   No pseudopotential on this center.
  207          1
                                   No pseudopotential on this center.
  208          7
                                   No pseudopotential on this center.
  209          6
                                   No pseudopotential on this center.
  210          6
                                   No pseudopotential on this center.
  211          8
                                   No pseudopotential on this center.
  212          7
                                   No pseudopotential on this center.
  213          1
                                   No pseudopotential on this center.
  214          6
                                   No pseudopotential on this center.
  215          7
                                   No pseudopotential on this center.
  216          1
                                   No pseudopotential on this center.
  217          1
                                   No pseudopotential on this center.
  218          7
                                   No pseudopotential on this center.
  219          6
                                   No pseudopotential on this center.
  220          6
                                   No pseudopotential on this center.
  221          1
                                   No pseudopotential on this center.
  222          6
                                   No pseudopotential on this center.
  223          1
                                   No pseudopotential on this center.
  224          1
                                   No pseudopotential on this center.
  225          8
                                   No pseudopotential on this center.
  226          1
[...]
   Y408       8.38094   0.02886   0.00000   0.01947   0.01944   8.40037
   Z408     -34.88812  -0.00496   0.00000  -0.00384  -0.00358 -34.89170
   X409      24.30188   0.02867   0.00000   0.01842   0.01851  24.32039
   Y409       7.27923  -0.02982   0.00000  -0.02434  -0.02438   7.25485
   Z409     -36.50573  -0.00043   0.00000  -0.00381  -0.00355 -36.50928
   X410      22.47262  -0.01861   0.00000  -0.01012  -0.01006  22.46257
   Y410       4.97565   0.02296   0.00000   0.00964   0.00964   4.98529
   Z410     -32.94737  -0.00013   0.00000   0.00166   0.00192 -32.94545
   X411      23.50441   0.00745   0.00000   0.00445   0.00449  23.50890
   Y411       2.15807  -0.00595   0.00000  -0.00434  -0.00435   2.15372
   Z411     -32.46738   0.02463   0.00000   0.01331   0.01360 -32.45379
   X412      21.69973  -0.02650   0.00000  -0.01425  -0.01422  21.68550
   Y412       0.83526  -0.01789   0.00000  -0.00995  -0.00993   0.82533
   Z412     -30.79498   0.01818   0.00000   0.00931   0.00960 -30.78538
   X413      26.18593   0.04029   0.00000   0.02152   0.02156  26.20749
   Y413       2.34326  -0.00003   0.00000  -0.00084  -0.00085   2.34241
   Z413     -31.70205   0.00970   0.00000   0.00499   0.00529 -31.69675
   X414      23.40615  -0.01148   0.00000  -0.00696  -0.00691  23.39924
   Y414       0.89573  -0.00747   0.00000  -0.00307  -0.00310   0.89263
   Z414     -35.20749  -0.03208   0.00000  -0.01390  -0.01361 -35.22109
   X415      22.41782  -0.00405   0.00000  -0.00317  -0.00310  22.41472
   Y415       2.29035   0.00025   0.00000   0.00034   0.00030   2.29065
   Z415     -37.28808  -0.00161   0.00000  -0.00366  -0.00338 -37.29146
   X416      22.12302  -0.00379   0.00000  -0.00292  -0.00284  22.12018
   Y416       4.24244  -0.00276   0.00000  -0.00161  -0.00164   4.24080
   Z416     -36.70226  -0.00581   0.00000  -0.00422  -0.00396 -36.70622
   X417      20.62069  -0.00421   0.00000  -0.00334  -0.00327  20.61743
   Y417       1.47021  -0.00099   0.00000  -0.00068  -0.00071   1.46950
   Z417     -37.87011   0.00190   0.00000   0.00091   0.00119 -37.86893
   X418      24.23763   0.00034   0.00000   0.00131   0.00140  24.23903
   Y418       2.23555   0.00207   0.00000   0.00063   0.00057   2.23612
   Z418     -39.49906  -0.00603   0.00000  -0.00409  -0.00380 -39.50285
   X419      23.43071   0.00573   0.00000   0.00427   0.00437  23.43508
   Y419       1.11305  -0.01332   0.00000  -0.00919  -0.00926   1.10379
   Z419     -41.02595  -0.00132   0.00000  -0.00107  -0.00078 -41.02673
   X420      24.48896  -0.01813   0.00000  -0.01037  -0.01026  24.47870
   Y420       4.72621   0.00926   0.00000   0.00735   0.00729   4.73349
   Z420     -40.54596   0.01104   0.00000   0.00626   0.00654 -40.53943
   X421      26.68671   0.01071   0.00000   0.00233   0.00245  26.68916
   Y421       4.72243   0.05162   0.00000   0.02508   0.02499   4.74742
   Z421     -41.99538   0.01786   0.00000   0.00926   0.00955 -41.98583
   X422      26.28231   0.00113   0.00000   0.00116   0.00128  26.28359
   Y422       4.06858  -0.00840   0.00000  -0.00321  -0.00331   4.06527
   Z422     -43.90590  -0.00173   0.00000   0.00195   0.00224 -43.90366
   X423      27.53142  -0.00276   0.00000   0.00002   0.00014  27.53156
   Y423       7.30946  -0.00481   0.00000   0.00226   0.00217   7.31163
   Z423     -42.39223   0.00044   0.00000   0.00117   0.00144 -42.39078
   X424      28.77297   0.00599   0.00000   0.00336   0.00348  28.77645
   Y424       8.83447   0.00554   0.00000   0.00324   0.00316   8.83763
   Z424     -40.71604   0.00432   0.00000   0.00175   0.00202 -40.71402
   X425      29.27564  -0.00044   0.00000  -0.00014  -0.00003  29.27561
   Y425       8.13716   0.00266   0.00000   0.00208   0.00201   8.13917
   Z425     -38.86411   0.00066   0.00000   0.00072   0.00099 -38.86311
   X426      29.34745   0.00154   0.00000   0.00152   0.00166  29.34911
   Y426      11.07002   0.00119   0.00000   0.00178   0.00169  11.07171
   Z426     -41.64012   0.00138   0.00000   0.00092   0.00118 -41.63894
   X427      28.42715   0.00450   0.00000   0.00195   0.00210  28.42925
   Y427      10.98876   0.00702   0.00000   0.00295   0.00284  10.99160
   Z427     -44.09109   0.00348   0.00000   0.00182   0.00207 -44.08902
   X428      28.42148   0.00292   0.00000   0.00121   0.00138  28.42286
   Y428      12.76132   0.00186   0.00000   0.00086   0.00074  12.76206
   Z428     -46.09420   0.00701   0.00000   0.00298   0.00322 -46.09098
   X429      29.42493   0.00674   0.00000   0.00355   0.00372  29.42865
   Y429      15.07246  -0.00217   0.00000  -0.00035  -0.00048  15.07198
   Z429     -45.91657   0.00873   0.00000   0.00294   0.00317 -45.91339
   X430      29.36445  -0.00582   0.00000  -0.00413  -0.00394  29.36052
   Y430      16.25731   0.00654   0.00000   0.00363   0.00350  16.26081
   Z430     -47.41134  -0.00554   0.00000  -0.00237  -0.00215 -47.41349
   X431      30.24318  -0.00130   0.00000  -0.00030  -0.00013  30.24304
   Y431      15.63370  -0.00119   0.00000  -0.00042  -0.00053  15.63317
   Z431     -44.28762  -0.00100   0.00000   0.00022   0.00045 -44.28718
   X432      27.33867  -0.00537   0.00000  -0.00390  -0.00372  27.33495
   Y432      12.05456  -0.00434   0.00000  -0.00389  -0.00402  12.05054
   Z432     -48.29006  -0.00043   0.00000   0.00086   0.00110 -48.28897
   X433      26.34089  -0.00644   0.00000  -0.00362  -0.00344  26.33745
   Y433       9.73965  -0.01692   0.00000  -0.00853  -0.00866   9.73099
   Z433     -48.46581  -0.00197   0.00000  -0.00191  -0.00167 -48.46747
   X434      25.46784  -0.00037   0.00000  -0.00065  -0.00047  25.46737
   Y434       9.13494   0.01187   0.00000   0.00793   0.00779   9.14273
   Z434     -50.20813  -0.01105   0.00000  -0.00821  -0.00796 -50.21610
   X435      26.23318   0.00113   0.00000  -0.00021  -0.00005  26.23312
   Y435       7.92551  -0.00209   0.00000  -0.00299  -0.00310   7.92241
   Z435     -46.73671   0.00237   0.00000   0.00107   0.00133 -46.73538
   X436      27.31221  -0.00546   0.00000  -0.00262  -0.00247  27.30974
   Y436       8.67384  -0.00491   0.00000  -0.00124  -0.00135   8.67250
   Z436     -44.57864  -0.00038   0.00000   0.00018   0.00044 -44.57820
   X437      26.93427   0.02607   0.00000   0.01233   0.01241  26.94668
   Y437       1.45320  -0.01085   0.00000  -0.00748  -0.00754   1.44566
   Z437     -38.83387  -0.00820   0.00000  -0.00593  -0.00562 -38.83949
   X438      27.41237  -0.00561   0.00000  -0.00333  -0.00326  27.40911
   Y438       1.81414   0.00497   0.00000   0.00327   0.00322   1.81735
   Z438     -36.86289   0.00267   0.00000   0.00051   0.00082 -36.86207
   X439      28.59912  -0.01287   0.00000  -0.00422  -0.00412  28.59499
   Y439       3.10293  -0.03678   0.00000  -0.01898  -0.01906   3.08387
   Z439     -40.55352  -0.03216   0.00000  -0.01823  -0.01791 -40.57144
   X440      30.41703  -0.00348   0.00000  -0.00484  -0.00475  30.41228
   Y440       3.42796   0.02596   0.00000   0.01737   0.01729   3.44525
   Z440     -39.64267  -0.00678   0.00000  -0.00637  -0.00605 -39.64872
   X441      28.89580   0.02773   0.00000   0.01994   0.02004  28.91585
   Y441       2.14106  -0.03190   0.00000  -0.02512  -0.02522   2.11584
   Z441     -42.35065   0.01297   0.00000   0.00566   0.00598 -42.34467
   X442      27.28765  -0.02237   0.00000  -0.01205  -0.01197  27.27567
   Y442      -1.15651  -0.01465   0.00000  -0.01082  -0.01089  -1.16740
   Z442     -39.33654  -0.00661   0.00000  -0.00390  -0.00356 -39.34010
   X443      28.94682   0.00640   0.00000   0.00154   0.00161  28.94844
   Y443      -1.79146   0.00963   0.00000   0.00715   0.00708  -1.78438
   Z443     -38.96426   0.00531   0.00000   0.00282   0.00317 -38.96110
   X444      11.79000  -0.00745   0.00000  -0.00365  -0.00350  11.78650
   Y444      20.26731   0.00185   0.00000   0.00008   0.00007  20.26739
   Z444     -38.89812  -0.00758   0.00000  -0.00112  -0.00104 -38.89916
   X445       7.68915   0.00346   0.00000   0.00134   0.00155   7.69070
   Y445      25.63875  -0.00480   0.00000  -0.00204  -0.00209  25.63666
   Z445     -45.65720  -0.08287   0.00000  -0.03576  -0.03574 -45.69294
   X446      12.48044   0.00302   0.00000   0.00176   0.00188  12.48231
   Y446      18.85206  -0.00742   0.00000  -0.00524  -0.00522  18.84684
   Z446     -34.08858   0.02991   0.00000   0.02104   0.02114 -34.06745
         Item               Value     Threshold  Converged?
 Maximum Force            0.153691     0.000450     NO 
 RMS     Force            0.016480     0.000300     NO 
 Maximum Displacement     0.048529     0.001800     NO 
 RMS     Displacement     0.008203     0.001200     NO 
 Predicted change in Energy=-1.458059D-01
 GradGradGradGradGradGradGradGradGradGradGradGradGradGradGradGradGradGrad

 Unable to Open any file for archive entry.
 1\1\GINC-N3437\Force\RB3LYP\GenECP\C137H163Cl2Hg1N49O82P12\SSHAIK\27-F
 eb-2025\0\\# b3lyp/genecp scrf=(solvent=water) 10f 6d force scf=maxcyc
 les=500 symmetry=none\\7tg6+268Cl\\-12,1\H,13.128,12.421,-31.608\O,12.
 894,11.539,-31.908\C,11.534,11.092,-31.767\H,10.948,11.771,-32.386\H,1
 1.167,11.127,-30.741\C,11.387,9.676,-32.302\H,11.322,9.764,-33.387\O,1
 2.608,8.925,-32.07\C,12.395,7.922,-31.112\H,12.914,6.982,-31.298\N,12.
 993,8.389,-29.769\C,13.509,9.666,-29.68\H,13.401,10.295,-30.551\C,14.0
 76,10.179,-28.583\C,14.593,11.589,-28.537\H,13.776,12.283,-28.734\H,15
 .011,11.791,-27.551\H,15.368,11.717,-29.293\C,14.18,9.343,-27.429\O,14
 .686,9.74,-26.387\N,13.667,8.068,-27.575\H,13.716,7.433,-26.69\C,13.08
 3,7.523,-28.698\O,12.664,6.38,-28.719\C,10.229,8.862,-31.732\H,9.655,9
 .374,-30.96\C,10.895,7.602,-31.13\H,10.219,7.142,-30.41\H,11.115,6.891
 ,-31.926\O,9.335,8.551,-32.822\P,7.89,7.873,-32.609\O,8.107,6.416,-32.
 761\O,6.952,8.545,-33.538\O,7.439,8.276,-31.121\C,6.42,7.522,-30.452\H
 ,5.62,7.377,-31.178\H,6.021,8.018,-29.568\C,6.982,6.175,-30.055\H,6.90
 4,5.515,-30.919\O,8.395,6.327,-29.845\C,8.756,5.966,-28.544\H,9.535,5.
 204,-28.511\N,9.362,7.111,-27.857\C,9.64,8.356,-28.374\H,9.358,8.602,-
 29.387\N,10.251,9.147,-27.534\C,10.385,8.372,-26.388\C,10.961,8.683,-2
 5.132\O,11.484,9.742,-24.763\N,10.885,7.596,-24.252\H,11.267,7.701,-23
 .334\C,10.32,6.383,-24.568\N,10.321,5.44,-23.622\H,10.705,5.514,-22.69
 1\H,9.911,4.551,-23.871\N,9.788,6.093,-25.73\C,9.855,7.125,-26.587\C,6
 .386,5.536,-28.808\H,5.635,6.163,-28.328\C,7.566,5.325,-27.849\H,7.202
 ,5.313,-26.822\H,8.052,4.375,-28.073\O,5.802,4.3,-29.154\P,4.252,4.211
 ,-29.566\O,4.169,3.86,-31.003\O,3.549,5.408,-29.051\O,3.728,2.971,-28.
 715\C,2.84,3.187,-27.645\H,2.017,2.478,-27.735\H,2.451,4.203,-27.707\C
 ,3.522,2.994,-26.3\H,3.902,1.976,-26.212\O,4.725,3.848,-26.201\C,4.645
 ,4.488,-24.95\H,5.065,3.783,-24.232\N,5.544,5.688,-24.812\C,5.575,6.63
 7,-25.799\H,4.903,6.514,-26.635\C,6.342,7.737,-25.744\C,6.384,8.724,-2
 6.869\H,5.386,9.128,-27.036\H,7.067,9.535,-26.616\H,6.73,8.228,-27.776
 \C,7.123,7.967,-24.555\O,7.835,8.955,-24.416\N,7.01,6.997,-23.585\H,7.
 609,7.147,-22.687\C,6.251,5.864,-23.635\O,6.231,5.075,-22.714\C,2.641,
 3.404,-25.109\H,1.575,3.463,-25.329\C,3.176,4.792,-24.826\H,2.455,5.53
 6,-25.164\H,3.341,4.907,-23.755\O,2.839,2.532,-23.967\P,2.95,3.182,-22
 .493\O,1.948,4.267,-22.345\O,4.384,3.373,-22.192\O,2.479,2.077,-21.457
 \C,1.639,2.478,-20.351\H,1.346,1.556,-19.848\H,0.751,2.98,-20.735\C,2.
 35,3.406,-19.338\H,2.98,2.785,-18.701\O,3.278,4.321,-19.987\C,3.424,5.
 488,-19.204\H,4.255,5.4,-18.504\N,3.848,6.687,-20.102\C,3.384,6.78,-21
 .411\H,2.707,6.015,-21.761\C,3.706,7.8,-22.249\C,3.195,7.884,-23.653\H
 ,2.106,7.922,-23.642\H,3.585,8.784,-24.129\H,3.522,7.007,-24.212\C,4.5
 79,8.825,-21.765\O,4.92,9.781,-22.462\N,5.001,8.669,-20.463\H,5.717,8.
 329,-18.131\C,4.691,7.657,-19.59\O,5.132,7.639,-18.453\C,1.403,4.3,-18
 .539\H,0.454,4.396,-19.067\C,2.097,5.686,-18.466\H,1.341,6.467,-18.383
 \H,2.751,5.72,-17.595\O,1.126,3.726,-17.235\P,2.2,3.763,-16.033\O,3.55
 5,3.434,-16.526\O,1.611,2.928,-14.966\O,2.182,5.277,-15.511\C,3.406,5.
 926,-15.154\H,4.032,5.962,-16.045\H,3.928,5.384,-14.365\C,3.126,7.334,
 -14.687\H,3.844,7.604,-13.913\O,3.377,8.28,-15.763\C,2.345,9.233,-15.7
 66\H,2.573,10.084,-15.123\N,2.265,9.854,-17.134\C,1.551,9.217,-18.13\H
 ,1.03,8.308,-17.87\C,1.431,9.695,-19.379\C,0.65,8.97,-20.432\H,-0.386,
 8.866,-20.11\H,0.685,9.534,-21.364\H,1.082,7.982,-20.589\C,2.077,10.93
 9,-19.693\O,2.016,11.445,-20.808\N,2.765,11.525,-18.651\H,3.248,12.475
 ,-18.879\C,2.906,11.052,-17.374\O,3.549,11.656,-16.527\C,1.682,7.561,-
 14.239\H,1.083,6.654,-14.158\C,1.106,8.457,-15.343\H,0.29,7.937,-15.84
 5\H,0.731,9.381,-14.903\O,1.681,8.211,-12.996\P,1.735,7.384,-11.619\O,
 1.889,5.948,-11.923\O,0.593,7.825,-10.792\O,3.043,7.942,-10.887\C,2.89
 3,8.653,-9.664\H,3.27,8.011,-8.868\H,1.839,8.868,-9.488\C,3.676,9.957,
 -9.668\H,4.731,9.728,-9.52\O,3.62,10.584,-10.976\C,2.814,11.757,-10.93
 3\H,3.364,12.674,-11.144\N,1.877,11.653,-12.044\C,0.955,10.656,-12.223
 \H,0.85,9.881,-11.478\N,0.274,10.753,-13.325\C,0.769,11.898,-13.928\C,
 0.393,12.497,-15.148\O,-0.473,12.124,-15.95\N,1.13,13.646,-15.406\H,0.
 925,14.148,-16.246\C,2.115,14.152,-14.591\N,2.708,15.274,-15.022\H,2.5
 15,15.773,-15.879\H,3.439,15.651,-14.437\N,2.486,13.601,-13.431\C,1.76
 6,12.47,-13.168\C,3.165,11.008,-8.702\H,2.672,10.628,-7.807\C,2.151,11
 .763,-9.561\H,1.145,11.572,-9.188\H,2.359,12.832,-9.514\O,4.259,11.829
 ,-8.288\P,4.037,13.279,-7.626\O,5.151,13.468,-6.671\O,2.652,13.411,-7.
 118\O,4.222,14.272,-8.867\C,5.147,15.35,-8.799\H,5.976,15.143,-9.476\H
 ,5.528,15.468,-7.785\C,4.464,16.629,-9.225\H,5.182,17.367,-9.583\O,3.6
 49,16.327,-10.38\C,2.361,16.877,-10.258\H,2.251,17.618,-11.05\N,1.38,1
 5.857,-10.602\C,1.029,14.786,-9.83\H,1.507,14.624,-8.875\N,0.11,14.038
 ,-10.36\C,-0.18,14.655,-11.562\C,-1.104,14.284,-12.56\O,-1.865,13.309,
 -12.568\N,-1.101,15.174,-13.625\H,-1.729,14.995,-14.382\C,-0.299,16.28
 8,-13.717\N,-0.444,17.029,-14.831\H,-1.067,16.847,-15.605\H,0.147,17.8
 44,-14.911\N,0.582,16.651,-12.78\C,0.585,15.786,-11.733\C,3.539,17.207
 ,-8.159\H,3.461,16.477,-7.353\C,2.178,17.377,-8.823\H,1.397,17.36,-8.0
 62\H,2.148,18.329,-9.352\O,4.045,18.457,-7.594\H,3.488,18.851,-6.919\H
 ,-4.422,13.722,-23.49\O,-4.248,14.34,-22.777\C,-5.284,15.224,-22.361\H
 ,-6.11,14.604,-22.012\H,-5.622,15.844,-23.192\C,-4.817,16.122,-21.224\
 H,-5.526,16.945,-21.132\O,-4.911,15.422,-19.969\C,-3.939,15.94,-19.1\H
 ,-4.283,16.839,-18.589\N,-3.731,14.952,-17.982\C,-4.257,13.695,-18.095
 \H,-4.792,13.415,-18.99\C,-4.122,12.797,-17.113\H,-4.544,11.8,-17.242\
 C,-3.424,13.202,-15.936\N,-3.26,12.344,-14.922\H,-2.76,12.67,-14.107\H
 ,-3.629,11.406,-14.984\N,-2.917,14.434,-15.805\C,-3.06,15.34,-16.809\O
 ,-2.6,16.487,-16.719\C,-3.369,16.607,-21.321\H,-2.816,16.141,-22.136\C
 ,-2.729,16.209,-19.97\H,-1.768,15.727,-20.151\H,-2.579,17.101,-19.362\
 O,-3.359,18.006,-21.516\P,-2.404,18.661,-22.631\O,-2.255,20.098,-22.28
 6\O,-2.902,18.278,-23.974\O,-1.016,17.894,-22.43\C,0.173,18.447,-22.93
 8\H,-0.092,19.208,-23.672\H,0.783,17.68,-23.415\C,0.965,19.088,-21.821
 \H,0.655,20.126,-21.703\O,0.62,18.46,-20.558\C,1.702,17.682,-20.078\H,
 2.079,18.049,-19.123\N,1.169,16.333,-19.75\C,0.54,15.6,-20.716\H,0.448
 ,15.992,-21.718\C,0.031,14.395,-20.443\H,-0.445,13.822,-21.239\C,0.149
 ,13.918,-19.104\N,-0.344,12.723,-18.769\H,-0.239,12.424,-17.81\H,-0.80
 4,12.149,-19.462\N,0.753,14.632,-18.15\C,1.268,15.85,-18.437\O,1.837,1
 6.534,-17.576\C,2.467,18.948,-21.96\H,2.795,18.815,-22.991\C,2.777,17.
 683,-21.16\H,3.229,16.939,-21.816\H,3.469,17.923,-20.353\O,3.114,20.09
 ,-21.435\P,4.535,20.541,-22.025\O,4.556,22.019,-22.079\O,4.795,19.72,-
 23.235\O,5.545,20.111,-20.876\C,5.081,20.087,-19.529\H,4.364,19.272,-1
 9.431\H,4.589,21.033,-19.301\C,6.219,19.869,-18.551\H,5.988,20.377,-17
 .615\O,6.279,18.481,-18.201\C,7.174,17.828,-19.066\H,7.834,17.128,-18.
 553\N,6.403,16.965,-19.949\C,6.144,17.142,-21.28\H,6.56,17.986,-21.811
 \N,5.425,16.177,-21.806\C,5.192,15.324,-20.739\C,4.487,14.114,-20.628\
 N,3.865,13.531,-21.658\H,3.372,12.66,-21.523\H,3.888,13.962,-22.571\N,
 4.454,13.521,-19.412\C,5.081,14.101,-18.385\H,5.065,13.646,-17.406\N,5
 .773,15.231,-18.368\C,5.785,15.797,-19.589\C,7.609,20.199,-19.073\H,7.
 625,21.018,-19.792\C,8.031,18.897,-19.771\H,8.322,19.113,-20.799\H,8.8
 75,18.456,-19.24\O,8.471,20.586,-17.954\P,9.851,19.833,-17.581\O,10.36
 6,20.533,-16.38\O,10.74,19.706,-18.758\O,9.403,18.373,-17.114\C,9.967,
 17.813,-15.956\H,9.283,18.049,-15.141\H,10.946,18.241,-15.743\C,10.097
 ,16.306,-16.077\H,9.8,15.883,-15.117\O,9.135,15.769,-17.025\C,9.686,14
 .568,-17.489\H,9.53,13.784,-16.748\N,8.935,14.059,-18.681\C,9.003,14.7
 4,-19.882\H,9.64,15.611,-19.933\C,8.367,14.339,-20.996\C,8.459,15.107,
 -22.281\H,9.5,15.159,-22.6\H,7.869,14.605,-23.048\H,8.075,16.116,-22.1
 3\C,7.588,13.129,-20.931\O,6.974,12.69,-21.898\N,7.578,12.497,-19.702\
 H,7.629,11.441,-17.47\C,8.217,12.891,-18.561\O,8.139,12.252,-17.523\C,
 11.475,15.795,-16.544\H,12.15,16.594,-16.851\C,11.141,14.91,-17.758\H,
 11.746,15.219,-18.611\H,11.356,13.868,-17.519\O,12.117,15.056,-15.465\
 P,13.048,13.763,-15.738\O,13.727,13.449,-14.463\O,13.887,13.933,-16.94
 2\O,12.006,12.591,-16.027\C,11.172,12.118,-14.987\H,10.195,12.581,-15.
 126\H,11.569,12.395,-14.01\C,11.024,10.609,-15.056\H,10.413,10.279,-14
 .216\O,10.25,10.259,-16.226\C,11.065,9.634,-17.193\H,10.734,8.628,-17.
 45\N,10.931,10.359,-18.46\C,11.451,11.585,-18.779\H,12.078,12.109,-18.
 072\N,11.162,11.983,-19.999\C,10.398,10.948,-20.512\C,9.778,10.75,-21.
 766\N,9.836,11.632,-22.771\H,9.371,11.433,-23.645\H,10.345,12.497,-22.
 655\N,9.092,9.603,-21.944\C,9.033,8.722,-20.938\H,8.49,7.796,-21.06\N,
 9.57,8.799,-19.723\C,10.245,9.945,-19.574\C,12.333,9.833,-15.156\H,13.
 187,10.397,-14.78\C,12.5,9.596,-16.654\H,13.467,9.98,-16.978\H,12.446,
 8.527,-16.861\O,12.246,8.609,-14.424\P,13.51,7.617,-14.327\O,13.378,6.
 83,-13.077\O,14.741,8.385,-14.617\O,13.262,6.573,-15.503\C,12.503,5.41
 5,-15.23\H,11.706,5.707,-14.546\H,13.124,4.652,-14.759\C,11.893,4.85,-
 16.491\H,10.875,4.526,-16.277\O,11.74,5.901,-17.472\C,12.094,5.393,-18
 .73\H,11.241,4.946,-19.24\N,12.46,6.532,-19.595\C,13.197,7.554,-19.095
 \H,13.54,7.523,-18.071\C,13.51,8.608,-19.85\H,14.107,9.413,-19.421\C,1
 3.038,8.621,-21.196\N,13.329,9.652,-21.992\H,12.978,9.628,-22.939\H,13
 .882,10.423,-21.645\N,12.301,7.619,-21.696\C,11.992,6.56,-20.904\O,11.
 321,5.604,-21.294\C,12.72,3.755,-17.167\H,13.574,3.421,-16.578\C,13.21
 7,4.418,-18.458\H,14.307,4.435,-18.462\H,12.86,3.852,-19.318\O,11.892,
 2.633,-17.435\P,12.438,1.142,-17.181\O,11.483,0.442,-16.296\O,13.857,1
 .24,-16.776\O,12.386,0.474,-18.631\C,11.863,1.212,-19.732\H,11.707,2.2
 45,-19.422\H,10.912,0.778,-20.04\C,12.826,1.183,-20.902\H,12.399,0.589
 ,-21.71\O,12.959,2.501,-21.456\C,14.122,2.499,-22.223\H,13.908,2.153,-
 23.234\N,14.569,3.868,-22.433\C,15.226,4.675,-21.546\H,15.492,4.306,-2
 0.566\N,15.53,5.858,-22.035\C,15.043,5.815,-23.332\C,15.04,6.753,-24.3
 92\N,15.571,7.976,-24.298\H,15.539,8.603,-25.089\H,16.004,8.273,-23.43
 6\N,14.467,6.379,-25.554\C,13.939,5.154,-25.647\H,13.477,4.834,-26.569
 \N,13.882,4.194,-24.732\C,14.453,4.59,-23.59\C,14.253,0.769,-20.55\H,1
 4.506,0.96,-19.507\C,15.134,1.642,-21.46\H,16.096,1.814,-20.978\H,15.2
 91,1.133,-22.411\O,14.44,-0.612,-20.816\H,15.318,-0.948,-20.619\Hg,6.2
 39,10.725,-20.584\Cl,4.06892206,13.56744335,-24.1607477\Cl,6.60436242,
 9.97607955,-18.03890143\\Version=ES64L-GDVRevJ.26+\HF=-18341.5626823\R
 MSD=6.304e-10\RMSF=1.648e-02\Dipole=0.7110493,1.7356655,-7.5671783\Qua
 drupole=6571.5978824,2687.1290202,-9258.7269026,-2476.3889472,5077.727
 2232,8577.4253164\PG=Unknown\\@
 The archive entry for this job was punched.


 "MATHEMATICS IS THE ART OF GIVING THE SAME NAME
 TO DIFFERENT THINGS."
                    - H. POINCARE
 Job cpu time:       1 days 19 hours 14 minutes 17.9 seconds.
 Elapsed time:       0 days  1 hours 57 minutes 13.9 seconds.
 File lengths (MBytes):  RWF=  24649 Int=      0 D2E=      0 Chk=   1584 Scr=      1
 Normal termination of Gaussian DV at Thu Feb 27 01:00:37 2025.
