 Entering Gaussian System, Link 0=gdv
 Input=7tg6+283Cl_3BP_MINg.gjf
 Output=7tg6+283Cl_3BP_MINg.log
 Initial command:
 /sw/contrib/anantram-src/gdvj26p/gdv/l1.exe "/scr/Gau-91945.inp" -scrdir="/scr/"
 Entering Link 1 = /sw/contrib/anantram-src/gdvj26p/gdv/l1.exe PID=     91946.
  
 Copyright (c) 1988-2023, Gaussian, Inc.  All Rights Reserved.
  
 This is the private, development version of
 the Gaussian(R) DV system of programs. It is based on
 the Gaussian(R) 16 system (copyright 2016, Gaussian, Inc.),
 the Gaussian(R) 09 system (copyright 2009, Gaussian, Inc.),
 the Gaussian(R) 03 system (copyright 2003, Gaussian, Inc.),
 the Gaussian(R) 98 system (copyright 1998, Gaussian, Inc.),
 the Gaussian(R) 94 system (copyright 1995, Gaussian, Inc.),
 the Gaussian 92(TM) system (copyright 1992, Gaussian, Inc.),
 the Gaussian 90(TM) system (copyright 1990, Gaussian, Inc.),
 the Gaussian 88(TM) system (copyright 1988, Gaussian, Inc.),
 the Gaussian 86(TM) system (copyright 1986, Carnegie Mellon
 University), and the Gaussian 82(TM) system (copyright 1983,
 Carnegie Mellon University). Gaussian is a federally registered
 trademark of Gaussian, Inc.
  
 This software contains proprietary and confidential information,
 including trade secrets, belonging to Gaussian, Inc.
  
 This software is provided under written license and may be
 used, copied, transmitted, or stored only in accord with that
 written license.
  
 The following legend is applicable only to US Government
 contracts under FAR:
  
                    RESTRICTED RIGHTS LEGEND
  
 Use, reproduction and disclosure by the US Government is
 subject to restrictions as set forth in subparagraphs (a)
 and (c) of the Commercial Computer Software - Restricted
 Rights clause in FAR 52.227-19.
  
 Gaussian, Inc.
 340 Quinnipiac St., Bldg. 40, Wallingford CT 06492
  
  
 ---------------------------------------------------------------
 Warning -- This program may not be used in any manner that
 competes with the business of Gaussian, Inc. or will provide
 assistance to any competitor of Gaussian, Inc.  The licensee
 of this program is prohibited from giving any competitor of
 Gaussian, Inc. access to this program.  By using this program,
 the user acknowledges that Gaussian, Inc. is engaged in the
 business of creating and licensing software in the field of
 computational chemistry and represents and warrants to the
 licensee that it is not a competitor of Gaussian, Inc. and that
 it will not use this program in any manner prohibited above.
 ---------------------------------------------------------------
  

 Cite this work as:
 Gaussian Development Version, Revision J.26+,
 M. J. Frisch, G. W. Trucks, G. Scalmani, J. R. Cheeseman, X. Li, 
 J. Bloino, B. G. Janesko, A. V. Marenich, J. Zheng, F. Lipparini, 
 A. Jenkins, A. Liu, H. Liu, H. B. Schlegel, G. E. Scuseria, 
 M. A. Robb, V. Barone, G. A. Petersson, H. Nakatsuji, B. Mennucci, 
 C. Adamo, N. Rega, M. Caricato, H. P. Hratchian, J. V. Ortiz, 
 A. F. Izmaylov, H. Hu, C. Liao, J. L. Sonnenberg, D. Williams-Young, 
 F. Ding, R. Gomperts, F. Egidi, J. Goings, B. Peng, A. Petrone, 
 T. Henderson, D. Ranasinghe, V. G. Zakrzewski, J. Gao, G. Zheng, 
 W. Liang, M. Hada, M. Ehara, K. Toyota, R. Fukuda, J. Hasegawa, 
 M. Ishida, T. Nakajima, Y. Honda, O. Kitao, H. Nakai, T. Vreven, 
 K. Throssell, J. A. Montgomery, Jr., J. E. Peralta, F. Ogliaro, 
 M. J. Bearpark, J. J. Heyd, E. N. Brothers, K. N. Kudin, 
 V. N. Staroverov, T. A. Keith, R. Kobayashi, J. Normand, 
 K. Raghavachari, A. P. Rendell, J. C. Burant, S. S. Iyengar, 
 M. Cossi, J. M. Millam, M. Klene, R. Cammi, R. L. Martin, O. Farkas, 
 J. B. Foresman, and D. J. Fox, Gaussian, Inc., Wallingford CT, 2023.
 
 *******************************************
 Gaussian DV:  ES64L-GDVRevJ.26+  9-Sep-2023
                 16-Feb-2025 
 *******************************************
 %nprocshared=40
 Will use up to   40 processors via shared memory.
 %mem=364GB
 %chk=7tg6+283Cl_3BP_MINg.chk
 ----------------------------------------------------------------------
 # opt b3lyp/genecp scrf=(solvent=water) 10f 6d scf=maxcycles=500 symme
 try=none
 ----------------------------------------------------------------------
 1/18=20,19=15,26=6,37=-1,38=1/1,3;
 2/9=110,12=2,15=3/2;
 3/5=7,8=22,11=2,16=1,17=8,25=1,30=1,70=2201,71=1,72=1,74=-5/1,2,3;
 4//1;
 5/5=2,7=500,38=5,53=1/2;
 6/7=2,8=2,9=2,10=2,28=1/1;
 7/30=1/1,2,3,16;
 1/18=20,19=15,26=6/3(2);
 2/9=110,15=3/2;
 99//99;
 2/9=110,15=3/2;
 3/5=7,6=1,8=22,11=2,16=1,17=8,25=1,30=1,70=2205,71=1,72=1,74=-5,82=7,187=7/1,2,3;
 4/5=5,16=3,69=1/1;
 5/5=2,7=500,38=5,53=1/2;
 7/30=1/1,2,3,16;
 1/18=20,19=15,26=6/3(-5);
 2/9=110,15=3/2;
 6/7=2,8=2,9=2,10=2,19=2,28=1/1;
 99/9=1/99;
 -------------------
 7tg6+283Cl_3BP_MINg
 -------------------
 Symbolic Z-matrix:
 Charge =    -6 Multiplicity =     1
 P                    -1    4.252     4.211    -29.566 
 O                    -1    4.05266   3.93369  -31.03153 
 O                    -1    3.48271   5.44531  -29.17988 
 O                    -1    3.728     2.971    -28.715 
 C                    -1    2.84      3.187    -27.645 
 H                    -1    2.017     2.478    -27.735 
 H                    -1    2.451     4.203    -27.707 
 C                    -1    3.522     2.994    -26.3 
 H                    -1    3.902     1.976    -26.212 
 O                    -1    4.725     3.848    -26.201 
 C                    -1    4.645     4.488    -24.95 
 H                    -1    5.065     3.783    -24.232 
 N                    -1    5.544     5.688    -24.812 
 C                    -1    5.575     6.637    -25.799 
 H                    -1    4.903     6.514    -26.635 
 C                    -1    6.342     7.737    -25.744 
 C                    -1    6.384     8.724    -26.869 
 H                    -1    5.386     9.128    -27.036 
 H                    -1    7.067     9.535    -26.616 
 H                    -1    6.73      8.228    -27.776 
 C                    -1    7.123     7.967    -24.555 
 O                    -1    7.835     8.955    -24.416 
 N                    -1    7.01      6.997    -23.585 
 H                    -1    7.609     7.147    -22.687 
 C                    -1    6.251     5.864    -23.635 
 O                    -1    6.231     5.075    -22.714 
 C                    -1    2.641     3.404    -25.109 
 H                    -1    1.575     3.463    -25.329 
 C                    -1    3.176     4.792    -24.826 
 H                    -1    2.455     5.536    -25.164 
 H                    -1    3.341     4.907    -23.755 
 O                    -1    2.839     2.532    -23.967 
 P                    -1    2.95      3.182    -22.493 
 O                    -1    1.948     4.267    -22.345 
 O                    -1    4.384     3.373    -22.192 
 O                    -1    2.479     2.077    -21.457 
 C                    -1    1.639     2.478    -20.351 
 H                    -1    1.346     1.556    -19.848 
 H                    -1    0.751     2.98     -20.735 
 C                    -1    2.35      3.406    -19.338 
 H                    -1    2.98      2.785    -18.701 
 O                    -1    3.278     4.321    -19.987 
 C                    -1    3.424     5.488    -19.204 
 H                    -1    4.255     5.4      -18.504 
 N                    -1    3.848     6.687    -20.102 
 C                    -1    3.384     6.78     -21.411 
 H                    -1    2.707     6.015    -21.761 
 C                    -1    3.706     7.8      -22.249 
 C                    -1    3.195     7.884    -23.653 
 H                    -1    2.106     7.922    -23.642 
 H                    -1    3.585     8.784    -24.129 
 H                    -1    3.522     7.007    -24.212 
 C                    -1    4.579     8.825    -21.765 
 O                    -1    4.92      9.781    -22.462 
 N                    -1    5.001     8.669    -20.463 
 H                    -1    5.717     8.329    -18.131 
 C                    -1    4.691     7.657    -19.59 
 O                    -1    5.132     7.639    -18.453 
 C                    -1    1.403     4.3      -18.539 
 H                    -1    0.454     4.396    -19.067 
 C                    -1    2.097     5.686    -18.466 
 H                    -1    1.341     6.467    -18.383 
 H                    -1    2.751     5.72     -17.595 
 O                    -1    1.126     3.726    -17.235 
 P                    -1    2.2       3.763    -16.033 
 O                    -1    3.555     3.434    -16.526 
 O                    -1    1.611     2.928    -14.966 
 O                    -1    2.182     5.277    -15.511 
 C                    -1    3.406     5.926    -15.154 
 H                    -1    4.032     5.962    -16.045 
 H                    -1    3.928     5.384    -14.365 
 C                    -1    3.126     7.334    -14.687 
 H                    -1    3.844     7.604    -13.913 
 O                    -1    3.377     8.28     -15.763 
 C                    -1    2.345     9.233    -15.766 
 H                    -1    2.573     10.084   -15.123 
 N                    -1    2.265     9.854    -17.134 
 C                    -1    1.551     9.217    -18.13 
 H                    -1    1.03      8.308    -17.87 
 C                    -1    1.431     9.695    -19.379 
 C                    -1    0.65      8.97     -20.432 
 H                    -1   -0.386     8.866    -20.11 
 H                    -1    0.685     9.534    -21.364 
 H                    -1    1.082     7.982    -20.589 
 C                    -1    2.077     10.939   -19.693 
 O                    -1    2.016     11.445   -20.808 
 N                    -1    2.765     11.525   -18.651 
 H                    -1    3.248     12.475   -18.879 
 C                    -1    2.906     11.052   -17.374 
 O                    -1    3.549     11.656   -16.527 
 C                    -1    1.682     7.561    -14.239 
 H                    -1    1.083     6.654    -14.158 
 C                    -1    1.106     8.457    -15.343 
 H                    -1    0.29      7.937    -15.845 
 H                    -1    0.731     9.381    -14.903 
 O                    -1    1.681     8.211    -12.996 
 P                    -1    4.535     20.541   -22.025 
 O                    -1    4.61967   22.02846  -22.23648 
 O                    -1    4.89632   19.83144  -23.30187 
 O                    -1    5.545     20.111   -20.876 
 C                    -1    5.081     20.087   -19.529 
 H                    -1    4.364     19.272   -19.431 
 H                    -1    4.589     21.033   -19.301 
 C                    -1    6.219     19.869   -18.551 
 H                    -1    5.988     20.377   -17.615 
 O                    -1    6.279     18.481   -18.201 
 C                    -1    7.174     17.828   -19.066 
 H                    -1    7.834     17.128   -18.553 
 N                    -1    6.403     16.965   -19.949 
 C                    -1    6.144     17.142   -21.28 
 H                    -1    6.56      17.986   -21.811 
 N                    -1    5.425     16.177   -21.806 
 C                    -1    5.192     15.324   -20.739 
 C                    -1    4.487     14.114   -20.628 
 N                    -1    3.865     13.531   -21.658 
 H                    -1    3.372     12.66    -21.523 
 H                    -1    3.888     13.962   -22.571 
 N                    -1    4.454     13.521   -19.412 
 C                    -1    5.081     14.101   -18.385 
 H                    -1    5.065     13.646   -17.406 
 N                    -1    5.773     15.231   -18.368 
 C                    -1    5.785     15.797   -19.589 
 C                    -1    7.609     20.199   -19.073 
 H                    -1    7.625     21.018   -19.792 
 C                    -1    8.031     18.897   -19.771 
 H                    -1    8.322     19.113   -20.799 
 H                    -1    8.875     18.456   -19.24 
 O                    -1    8.471     20.586   -17.954 
 P                    -1    9.851     19.833   -17.581 
 O                    -1    10.366    20.533   -16.38 
 O                    -1    10.74     19.706   -18.758 
 O                    -1    9.403     18.373   -17.114 
 C                    -1    9.967     17.813   -15.956 
 H                    -1    9.283     18.049   -15.141 
 H                    -1    10.946    18.241   -15.743 
 C                    -1    10.097    16.306   -16.077 
 H                    -1    9.8       15.883   -15.117 
 O                    -1    9.135     15.769   -17.025 
 C                    -1    9.686     14.568   -17.489 
 H                    -1    9.53      13.784   -16.748 
 N                    -1    8.935     14.059   -18.681 
 C                    -1    9.003     14.74    -19.882 
 H                    -1    9.64      15.611   -19.933 
 C                    -1    8.367     14.339   -20.996 
 C                    -1    8.459     15.107   -22.281 
 H                    -1    9.5       15.159   -22.6 
 H                    -1    7.869     14.605   -23.048 
 H                    -1    8.075     16.116   -22.13 
 C                    -1    7.588     13.129   -20.931 
 O                    -1    6.974     12.69    -21.898 
 N                    -1    7.578     12.497   -19.702 
 H                    -1    7.629     11.441   -17.47 
 C                    -1    8.217     12.891   -18.561 
 O                    -1    8.139     12.252   -17.523 
 C                    -1    11.475    15.795   -16.544 
 H                    -1    12.15     16.594   -16.851 
 C                    -1    11.141    14.91    -17.758 
 H                    -1    11.746    15.219   -18.611 
 H                    -1    11.356    13.868   -17.519 
 O                    -1    12.117    15.056   -15.465 
 P                    -1    13.048    13.763   -15.738 
 O                    -1    13.727    13.449   -14.463 
 O                    -1    13.887    13.933   -16.942 
 O                    -1    12.006    12.591   -16.027 
 C                    -1    11.172    12.118   -14.987 
 H                    -1    10.195    12.581   -15.126 
 H                    -1    11.569    12.395   -14.01 
 C                    -1    11.024    10.609   -15.056 
 H                    -1    10.413    10.279   -14.216 
 O                    -1    10.25     10.259   -16.226 
 C                    -1    11.065    9.634    -17.193 
 H                    -1    10.734    8.628    -17.45 
 N                    -1    10.931    10.359   -18.46 
 C                    -1    11.451    11.585   -18.779 
 H                    -1    12.078    12.109   -18.072 
 N                    -1    11.162    11.983   -19.999 
 C                    -1    10.398    10.948   -20.512 
 C                    -1    9.778     10.75    -21.766 
 N                    -1    9.836     11.632   -22.771 
 H                    -1    9.371     11.433   -23.645 
 H                    -1    10.345    12.497   -22.655 
 N                    -1    9.092     9.603    -21.944 
 C                    -1    9.033     8.722    -20.938 
 H                    -1    8.49      7.796    -21.06 
 N                    -1    9.57      8.799    -19.723 
 C                    -1    10.245    9.945    -19.574 
 C                    -1    12.333    9.833    -15.156 
 H                    -1    13.187    10.397   -14.78 
 C                    -1    12.5      9.596    -16.654 
 H                    -1    13.467    9.98     -16.978 
 H                    -1    12.446    8.527    -16.861 
 O                    -1    12.246    8.609    -14.424 
 Hg                   -1    6.239     10.725   -20.584 
 Cl                   0     5.82933   11.53277  -23.26515 
 Cl                   0     6.64867   9.91723  -17.90285 
 H                    -1    13.12993   8.28758  -14.23178 
 H                    -1    2.58587   8.35959  -12.71186 
 O                    -1    5.91535   4.45491  -29.25312 
 H                    -1    6.41677   4.3172   -30.0601 
 O                    -1    2.94135   20.11974  -21.57011 
 H                    -1    2.31778   20.70047  -22.01229 
 

 GradGradGradGradGradGradGradGradGradGradGradGradGradGradGradGradGradGrad
 Berny optimization.
 Initialization pass.
                           ----------------------------
                           !    Initial Parameters    !
                           ! (Angstroms and Degrees)  !
 --------------------------                            --------------------------
 ! Name  Definition              Value          Derivative Info.                !
 --------------------------------------------------------------------------------
 ! X1    R(1,-1)                 4.252          Frozen                          !
 ! Y1    R(1,-2)                 4.211          Frozen                          !
 ! Z1    R(1,-3)               -29.566          Frozen                          !
 ! X2    R(2,-1)                 4.0527         Frozen                          !
 ! Y2    R(2,-2)                 3.9337         Frozen                          !
 ! Z2    R(2,-3)               -31.0315         Frozen                          !
 ! X3    R(3,-1)                 3.4827         Frozen                          !
 ! Y3    R(3,-2)                 5.4453         Frozen                          !
 ! Z3    R(3,-3)               -29.1799         Frozen                          !
 ! X4    R(4,-1)                 3.728          Frozen                          !
 ! Y4    R(4,-2)                 2.971          Frozen                          !
 ! Z4    R(4,-3)               -28.715          Frozen                          !
 ! X5    R(5,-1)                 2.84           Frozen                          !
 ! Y5    R(5,-2)                 3.187          Frozen                          !
 ! Z5    R(5,-3)               -27.645          Frozen                          !
 ! X6    R(6,-1)                 2.017          Frozen                          !
 ! Y6    R(6,-2)                 2.478          Frozen                          !
 ! Z6    R(6,-3)               -27.735          Frozen                          !
 ! X7    R(7,-1)                 2.451          Frozen                          !
 ! Y7    R(7,-2)                 4.203          Frozen                          !
 ! Z7    R(7,-3)               -27.707          Frozen                          !
 ! X8    R(8,-1)                 3.522          Frozen                          !
 ! Y8    R(8,-2)                 2.994          Frozen                          !
 ! Z8    R(8,-3)               -26.3            Frozen                          !
 ! X9    R(9,-1)                 3.902          Frozen                          !
 ! Y9    R(9,-2)                 1.976          Frozen                          !
 ! Z9    R(9,-3)               -26.212          Frozen                          !
 ! X10   R(10,-1)                4.725          Frozen                          !
 ! Y10   R(10,-2)                3.848          Frozen                          !
 ! Z10   R(10,-3)              -26.201          Frozen                          !
 ! X11   R(11,-1)                4.645          Frozen                          !
 ! Y11   R(11,-2)                4.488          Frozen                          !
 ! Z11   R(11,-3)              -24.95           Frozen                          !
 ! X12   R(12,-1)                5.065          Frozen                          !
 ! Y12   R(12,-2)                3.783          Frozen                          !
 ! Z12   R(12,-3)              -24.232          Frozen                          !
 ! X13   R(13,-1)                5.544          Frozen                          !
 ! Y13   R(13,-2)                5.688          Frozen                          !
 ! Z13   R(13,-3)              -24.812          Frozen                          !
 ! X14   R(14,-1)                5.575          Frozen                          !
 ! Y14   R(14,-2)                6.637          Frozen                          !
 ! Z14   R(14,-3)              -25.799          Frozen                          !
 ! X15   R(15,-1)                4.903          Frozen                          !
 ! Y15   R(15,-2)                6.514          Frozen                          !
 ! Z15   R(15,-3)              -26.635          Frozen                          !
 ! X16   R(16,-1)                6.342          Frozen                          !
 ! Y16   R(16,-2)                7.737          Frozen                          !
 ! Z16   R(16,-3)              -25.744          Frozen                          !
 ! X17   R(17,-1)                6.384          Frozen                          !
 ! Y17   R(17,-2)                8.724          Frozen                          !
 ! Z17   R(17,-3)              -26.869          Frozen                          !
 ! X18   R(18,-1)                5.386          Frozen                          !
 ! Y18   R(18,-2)                9.128          Frozen                          !
 ! Z18   R(18,-3)              -27.036          Frozen                          !
 ! X19   R(19,-1)                7.067          Frozen                          !
 ! Y19   R(19,-2)                9.535          Frozen                          !
 ! Z19   R(19,-3)              -26.616          Frozen                          !
 ! X20   R(20,-1)                6.73           Frozen                          !
 ! Y20   R(20,-2)                8.228          Frozen                          !
 ! Z20   R(20,-3)              -27.776          Frozen                          !
 ! X21   R(21,-1)                7.123          Frozen                          !
 ! Y21   R(21,-2)                7.967          Frozen                          !
 ! Z21   R(21,-3)              -24.555          Frozen                          !
 ! X22   R(22,-1)                7.835          Frozen                          !
 ! Y22   R(22,-2)                8.955          Frozen                          !
 ! Z22   R(22,-3)              -24.416          Frozen                          !
 ! X23   R(23,-1)                7.01           Frozen                          !
 ! Y23   R(23,-2)                6.997          Frozen                          !
 ! Z23   R(23,-3)              -23.585          Frozen                          !
 ! X24   R(24,-1)                7.609          Frozen                          !
 ! Y24   R(24,-2)                7.147          Frozen                          !
 ! Z24   R(24,-3)              -22.687          Frozen                          !
 ! X25   R(25,-1)                6.251          Frozen                          !
 ! Y25   R(25,-2)                5.864          Frozen                          !
 ! Z25   R(25,-3)              -23.635          Frozen                          !
 ! X26   R(26,-1)                6.231          Frozen                          !
 ! Y26   R(26,-2)                5.075          Frozen                          !
 ! Z26   R(26,-3)              -22.714          Frozen                          !
 ! X27   R(27,-1)                2.641          Frozen                          !
 ! Y27   R(27,-2)                3.404          Frozen                          !
 ! Z27   R(27,-3)              -25.109          Frozen                          !
 ! X28   R(28,-1)                1.575          Frozen                          !
 ! Y28   R(28,-2)                3.463          Frozen                          !
 ! Z28   R(28,-3)              -25.329          Frozen                          !
 ! X29   R(29,-1)                3.176          Frozen                          !
 ! Y29   R(29,-2)                4.792          Frozen                          !
 ! Z29   R(29,-3)              -24.826          Frozen                          !
 ! X30   R(30,-1)                2.455          Frozen                          !
 ! Y30   R(30,-2)                5.536          Frozen                          !
 ! Z30   R(30,-3)              -25.164          Frozen                          !
 ! X31   R(31,-1)                3.341          Frozen                          !
 ! Y31   R(31,-2)                4.907          Frozen                          !
 ! Z31   R(31,-3)              -23.755          Frozen                          !
 ! X32   R(32,-1)                2.839          Frozen                          !
 ! Y32   R(32,-2)                2.532          Frozen                          !
 ! Z32   R(32,-3)              -23.967          Frozen                          !
 ! X33   R(33,-1)                2.95           Frozen                          !
 ! Y33   R(33,-2)                3.182          Frozen                          !
 ! Z33   R(33,-3)              -22.493          Frozen                          !
 ! X34   R(34,-1)                1.948          Frozen                          !
 ! Y34   R(34,-2)                4.267          Frozen                          !
 ! Z34   R(34,-3)              -22.345          Frozen                          !
 ! X35   R(35,-1)                4.384          Frozen                          !
 ! Y35   R(35,-2)                3.373          Frozen                          !
 ! Z35   R(35,-3)              -22.192          Frozen                          !
 ! X36   R(36,-1)                2.479          Frozen                          !
 ! Y36   R(36,-2)                2.077          Frozen                          !
 ! Z36   R(36,-3)              -21.457          Frozen                          !
 ! X37   R(37,-1)                1.639          Frozen                          !
 ! Y37   R(37,-2)                2.478          Frozen                          !
 ! Z37   R(37,-3)              -20.351          Frozen                          !
 ! X38   R(38,-1)                1.346          Frozen                          !
 ! Y38   R(38,-2)                1.556          Frozen                          !
 ! Z38   R(38,-3)              -19.848          Frozen                          !
 ! X39   R(39,-1)                0.751          Frozen                          !
 ! Y39   R(39,-2)                2.98           Frozen                          !
 ! Z39   R(39,-3)              -20.735          Frozen                          !
 ! X40   R(40,-1)                2.35           Frozen                          !
 ! Y40   R(40,-2)                3.406          Frozen                          !
 ! Z40   R(40,-3)              -19.338          Frozen                          !
 ! X41   R(41,-1)                2.98           Frozen                          !
 ! Y41   R(41,-2)                2.785          Frozen                          !
 ! Z41   R(41,-3)              -18.701          Frozen                          !
 ! X42   R(42,-1)                3.278          Frozen                          !
 ! Y42   R(42,-2)                4.321          Frozen                          !
 ! Z42   R(42,-3)              -19.987          Frozen                          !
 ! X43   R(43,-1)                3.424          Frozen                          !
 ! Y43   R(43,-2)                5.488          Frozen                          !
 ! Z43   R(43,-3)              -19.204          Frozen                          !
 ! X44   R(44,-1)                4.255          Frozen                          !
 ! Y44   R(44,-2)                5.4            Frozen                          !
 ! Z44   R(44,-3)              -18.504          Frozen                          !
 ! X45   R(45,-1)                3.848          Frozen                          !
 ! Y45   R(45,-2)                6.687          Frozen                          !
 ! Z45   R(45,-3)              -20.102          Frozen                          !
 ! X46   R(46,-1)                3.384          Frozen                          !
 ! Y46   R(46,-2)                6.78           Frozen                          !
 ! Z46   R(46,-3)              -21.411          Frozen                          !
 ! X47   R(47,-1)                2.707          Frozen                          !
 ! Y47   R(47,-2)                6.015          Frozen                          !
 ! Z47   R(47,-3)              -21.761          Frozen                          !
 ! X48   R(48,-1)                3.706          Frozen                          !
 ! Y48   R(48,-2)                7.8            Frozen                          !
 ! Z48   R(48,-3)              -22.249          Frozen                          !
 ! X49   R(49,-1)                3.195          Frozen                          !
 ! Y49   R(49,-2)                7.884          Frozen                          !
 ! Z49   R(49,-3)              -23.653          Frozen                          !
 ! X50   R(50,-1)                2.106          Frozen                          !
 ! Y50   R(50,-2)                7.922          Frozen                          !
 ! Z50   R(50,-3)              -23.642          Frozen                          !
 ! X51   R(51,-1)                3.585          Frozen                          !
 ! Y51   R(51,-2)                8.784          Frozen                          !
 ! Z51   R(51,-3)              -24.129          Frozen                          !
 ! X52   R(52,-1)                3.522          Frozen                          !
 ! Y52   R(52,-2)                7.007          Frozen                          !
 ! Z52   R(52,-3)              -24.212          Frozen                          !
 ! X53   R(53,-1)                4.579          Frozen                          !
 ! Y53   R(53,-2)                8.825          Frozen                          !
 ! Z53   R(53,-3)              -21.765          Frozen                          !
 ! X54   R(54,-1)                4.92           Frozen                          !
 ! Y54   R(54,-2)                9.781          Frozen                          !
 ! Z54   R(54,-3)              -22.462          Frozen                          !
 ! X55   R(55,-1)                5.001          Frozen                          !
 ! Y55   R(55,-2)                8.669          Frozen                          !
 ! Z55   R(55,-3)              -20.463          Frozen                          !
 ! X56   R(56,-1)                5.717          Frozen                          !
 ! Y56   R(56,-2)                8.329          Frozen                          !
 ! Z56   R(56,-3)              -18.131          Frozen                          !
 ! X57   R(57,-1)                4.691          Frozen                          !
 ! Y57   R(57,-2)                7.657          Frozen                          !
 ! Z57   R(57,-3)              -19.59           Frozen                          !
 ! X58   R(58,-1)                5.132          Frozen                          !
 ! Y58   R(58,-2)                7.639          Frozen                          !
 ! Z58   R(58,-3)              -18.453          Frozen                          !
 ! X59   R(59,-1)                1.403          Frozen                          !
 ! Y59   R(59,-2)                4.3            Frozen                          !
 ! Z59   R(59,-3)              -18.539          Frozen                          !
 ! X60   R(60,-1)                0.454          Frozen                          !
 ! Y60   R(60,-2)                4.396          Frozen                          !
 ! Z60   R(60,-3)              -19.067          Frozen                          !
 ! X61   R(61,-1)                2.097          Frozen                          !
 ! Y61   R(61,-2)                5.686          Frozen                          !
 ! Z61   R(61,-3)              -18.466          Frozen                          !
 ! X62   R(62,-1)                1.341          Frozen                          !
 ! Y62   R(62,-2)                6.467          Frozen                          !
 ! Z62   R(62,-3)              -18.383          Frozen                          !
 ! X63   R(63,-1)                2.751          Frozen                          !
 ! Y63   R(63,-2)                5.72           Frozen                          !
 ! Z63   R(63,-3)              -17.595          Frozen                          !
 ! X64   R(64,-1)                1.126          Frozen                          !
 ! Y64   R(64,-2)                3.726          Frozen                          !
 ! Z64   R(64,-3)              -17.235          Frozen                          !
 ! X65   R(65,-1)                2.2            Frozen                          !
 ! Y65   R(65,-2)                3.763          Frozen                          !
 ! Z65   R(65,-3)              -16.033          Frozen                          !
 ! X66   R(66,-1)                3.555          Frozen                          !
 ! Y66   R(66,-2)                3.434          Frozen                          !
 ! Z66   R(66,-3)              -16.526          Frozen                          !
 ! X67   R(67,-1)                1.611          Frozen                          !
 ! Y67   R(67,-2)                2.928          Frozen                          !
 ! Z67   R(67,-3)              -14.966          Frozen                          !
 ! X68   R(68,-1)                2.182          Frozen                          !
 ! Y68   R(68,-2)                5.277          Frozen                          !
 ! Z68   R(68,-3)              -15.511          Frozen                          !
 ! X69   R(69,-1)                3.406          Frozen                          !
 ! Y69   R(69,-2)                5.926          Frozen                          !
 ! Z69   R(69,-3)              -15.154          Frozen                          !
 ! X70   R(70,-1)                4.032          Frozen                          !
 ! Y70   R(70,-2)                5.962          Frozen                          !
 ! Z70   R(70,-3)              -16.045          Frozen                          !
 ! X71   R(71,-1)                3.928          Frozen                          !
 ! Y71   R(71,-2)                5.384          Frozen                          !
 ! Z71   R(71,-3)              -14.365          Frozen                          !
 ! X72   R(72,-1)                3.126          Frozen                          !
 ! Y72   R(72,-2)                7.334          Frozen                          !
 ! Z72   R(72,-3)              -14.687          Frozen                          !
 ! X73   R(73,-1)                3.844          Frozen                          !
 ! Y73   R(73,-2)                7.604          Frozen                          !
 ! Z73   R(73,-3)              -13.913          Frozen                          !
 ! X74   R(74,-1)                3.377          Frozen                          !
 ! Y74   R(74,-2)                8.28           Frozen                          !
 ! Z74   R(74,-3)              -15.763          Frozen                          !
 ! X75   R(75,-1)                2.345          Frozen                          !
 ! Y75   R(75,-2)                9.233          Frozen                          !
 ! Z75   R(75,-3)              -15.766          Frozen                          !
 ! X76   R(76,-1)                2.573          Frozen                          !
 ! Y76   R(76,-2)               10.084          Frozen                          !
 ! Z76   R(76,-3)              -15.123          Frozen                          !
 ! X77   R(77,-1)                2.265          Frozen                          !
 ! Y77   R(77,-2)                9.854          Frozen                          !
 ! Z77   R(77,-3)              -17.134          Frozen                          !
 ! X78   R(78,-1)                1.551          Frozen                          !
 ! Y78   R(78,-2)                9.217          Frozen                          !
 ! Z78   R(78,-3)              -18.13           Frozen                          !
 ! X79   R(79,-1)                1.03           Frozen                          !
 ! Y79   R(79,-2)                8.308          Frozen                          !
 ! Z79   R(79,-3)              -17.87           Frozen                          !
 ! X80   R(80,-1)                1.431          Frozen                          !
 ! Y80   R(80,-2)                9.695          Frozen                          !
 ! Z80   R(80,-3)              -19.379          Frozen                          !
 ! X81   R(81,-1)                0.65           Frozen                          !
 ! Y81   R(81,-2)                8.97           Frozen                          !
 ! Z81   R(81,-3)              -20.432          Frozen                          !
 ! X82   R(82,-1)               -0.386          Frozen                          !
 ! Y82   R(82,-2)                8.866          Frozen                          !
 ! Z82   R(82,-3)              -20.11           Frozen                          !
 ! X83   R(83,-1)                0.685          Frozen                          !
 ! Y83   R(83,-2)                9.534          Frozen                          !
 ! Z83   R(83,-3)              -21.364          Frozen                          !
 ! X84   R(84,-1)                1.082          Frozen                          !
 ! Y84   R(84,-2)                7.982          Frozen                          !
 ! Z84   R(84,-3)              -20.589          Frozen                          !
 ! X85   R(85,-1)                2.077          Frozen                          !
 ! Y85   R(85,-2)               10.939          Frozen                          !
 ! Z85   R(85,-3)              -19.693          Frozen                          !
 ! X86   R(86,-1)                2.016          Frozen                          !
 ! Y86   R(86,-2)               11.445          Frozen                          !
 ! Z86   R(86,-3)              -20.808          Frozen                          !
 ! X87   R(87,-1)                2.765          Frozen                          !
 ! Y87   R(87,-2)               11.525          Frozen                          !
 ! Z87   R(87,-3)              -18.651          Frozen                          !
 ! X88   R(88,-1)                3.248          Frozen                          !
 ! Y88   R(88,-2)               12.475          Frozen                          !
 ! Z88   R(88,-3)              -18.879          Frozen                          !
 ! X89   R(89,-1)                2.906          Frozen                          !
 ! Y89   R(89,-2)               11.052          Frozen                          !
 ! Z89   R(89,-3)              -17.374          Frozen                          !
 ! X90   R(90,-1)                3.549          Frozen                          !
 ! Y90   R(90,-2)               11.656          Frozen                          !
 ! Z90   R(90,-3)              -16.527          Frozen                          !
 ! X91   R(91,-1)                1.682          Frozen                          !
 ! Y91   R(91,-2)                7.561          Frozen                          !
 ! Z91   R(91,-3)              -14.239          Frozen                          !
 ! X92   R(92,-1)                1.083          Frozen                          !
 ! Y92   R(92,-2)                6.654          Frozen                          !
 ! Z92   R(92,-3)              -14.158          Frozen                          !
 ! X93   R(93,-1)                1.106          Frozen                          !
 ! Y93   R(93,-2)                8.457          Frozen                          !
 ! Z93   R(93,-3)              -15.343          Frozen                          !
 ! X94   R(94,-1)                0.29           Frozen                          !
 ! Y94   R(94,-2)                7.937          Frozen                          !
 ! Z94   R(94,-3)              -15.845          Frozen                          !
 ! X95   R(95,-1)                0.731          Frozen                          !
 ! Y95   R(95,-2)                9.381          Frozen                          !
 ! Z95   R(95,-3)              -14.903          Frozen                          !
 ! X96   R(96,-1)                1.681          Frozen                          !
 ! Y96   R(96,-2)                8.211          Frozen                          !
 ! Z96   R(96,-3)              -12.996          Frozen                          !
 ! X97   R(97,-1)                4.535          Frozen                          !
 ! Y97   R(97,-2)               20.541          Frozen                          !
 ! Z97   R(97,-3)              -22.025          Frozen                          !
 ! X98   R(98,-1)                4.6197         Frozen                          !
 ! Y98   R(98,-2)               22.0285         Frozen                          !
 ! Z98   R(98,-3)              -22.2365         Frozen                          !
 ! X99   R(99,-1)                4.8963         Frozen                          !
 ! Y99   R(99,-2)               19.8314         Frozen                          !
 ! Z99   R(99,-3)              -23.3019         Frozen                          !
 ! X100  R(100,-1)               5.545          Frozen                          !
 ! Y100  R(100,-2)              20.111          Frozen                          !
 ! Z100  R(100,-3)             -20.876          Frozen                          !
 ! X101  R(101,-1)               5.081          Frozen                          !
 ! Y101  R(101,-2)              20.087          Frozen                          !
 ! Z101  R(101,-3)             -19.529          Frozen                          !
 ! X102  R(102,-1)               4.364          Frozen                          !
 ! Y102  R(102,-2)              19.272          Frozen                          !
 ! Z102  R(102,-3)             -19.431          Frozen                          !
 ! X103  R(103,-1)               4.589          Frozen                          !
 ! Y103  R(103,-2)              21.033          Frozen                          !
 ! Z103  R(103,-3)             -19.301          Frozen                          !
 ! X104  R(104,-1)               6.219          Frozen                          !
 ! Y104  R(104,-2)              19.869          Frozen                          !
 ! Z104  R(104,-3)             -18.551          Frozen                          !
 ! X105  R(105,-1)               5.988          Frozen                          !
 ! Y105  R(105,-2)              20.377          Frozen                          !
 ! Z105  R(105,-3)             -17.615          Frozen                          !
 ! X106  R(106,-1)               6.279          Frozen                          !
 ! Y106  R(106,-2)              18.481          Frozen                          !
 ! Z106  R(106,-3)             -18.201          Frozen                          !
 ! X107  R(107,-1)               7.174          Frozen                          !
 ! Y107  R(107,-2)              17.828          Frozen                          !
 ! Z107  R(107,-3)             -19.066          Frozen                          !
 ! X108  R(108,-1)               7.834          Frozen                          !
 ! Y108  R(108,-2)              17.128          Frozen                          !
 ! Z108  R(108,-3)             -18.553          Frozen                          !
 ! X109  R(109,-1)               6.403          Frozen                          !
 ! Y109  R(109,-2)              16.965          Frozen                          !
 ! Z109  R(109,-3)             -19.949          Frozen                          !
 ! X110  R(110,-1)               6.144          Frozen                          !
 ! Y110  R(110,-2)              17.142          Frozen                          !
 ! Z110  R(110,-3)             -21.28           Frozen                          !
 ! X111  R(111,-1)               6.56           Frozen                          !
 ! Y111  R(111,-2)              17.986          Frozen                          !
 ! Z111  R(111,-3)             -21.811          Frozen                          !
 ! X112  R(112,-1)               5.425          Frozen                          !
 ! Y112  R(112,-2)              16.177          Frozen                          !
 ! Z112  R(112,-3)             -21.806          Frozen                          !
 ! X113  R(113,-1)               5.192          Frozen                          !
 ! Y113  R(113,-2)              15.324          Frozen                          !
 ! Z113  R(113,-3)             -20.739          Frozen                          !
 ! X114  R(114,-1)               4.487          Frozen                          !
 ! Y114  R(114,-2)              14.114          Frozen                          !
 ! Z114  R(114,-3)             -20.628          Frozen                          !
 ! X115  R(115,-1)               3.865          Frozen                          !
 ! Y115  R(115,-2)              13.531          Frozen                          !
 ! Z115  R(115,-3)             -21.658          Frozen                          !
 ! X116  R(116,-1)               3.372          Frozen                          !
 ! Y116  R(116,-2)              12.66           Frozen                          !
 ! Z116  R(116,-3)             -21.523          Frozen                          !
 ! X117  R(117,-1)               3.888          Frozen                          !
 ! Y117  R(117,-2)              13.962          Frozen                          !
 ! Z117  R(117,-3)             -22.571          Frozen                          !
 ! X118  R(118,-1)               4.454          Frozen                          !
 ! Y118  R(118,-2)              13.521          Frozen                          !
 ! Z118  R(118,-3)             -19.412          Frozen                          !
 ! X119  R(119,-1)               5.081          Frozen                          !
 ! Y119  R(119,-2)              14.101          Frozen                          !
 ! Z119  R(119,-3)             -18.385          Frozen                          !
 ! X120  R(120,-1)               5.065          Frozen                          !
 ! Y120  R(120,-2)              13.646          Frozen                          !
 ! Z120  R(120,-3)             -17.406          Frozen                          !
 ! X121  R(121,-1)               5.773          Frozen                          !
 ! Y121  R(121,-2)              15.231          Frozen                          !
 ! Z121  R(121,-3)             -18.368          Frozen                          !
 ! X122  R(122,-1)               5.785          Frozen                          !
 ! Y122  R(122,-2)              15.797          Frozen                          !
 ! Z122  R(122,-3)             -19.589          Frozen                          !
 ! X123  R(123,-1)               7.609          Frozen                          !
 ! Y123  R(123,-2)              20.199          Frozen                          !
 ! Z123  R(123,-3)             -19.073          Frozen                          !
 ! X124  R(124,-1)               7.625          Frozen                          !
 ! Y124  R(124,-2)              21.018          Frozen                          !
 ! Z124  R(124,-3)             -19.792          Frozen                          !
 ! X125  R(125,-1)               8.031          Frozen                          !
 ! Y125  R(125,-2)              18.897          Frozen                          !
 ! Z125  R(125,-3)             -19.771          Frozen                          !
 ! X126  R(126,-1)               8.322          Frozen                          !
 ! Y126  R(126,-2)              19.113          Frozen                          !
 ! Z126  R(126,-3)             -20.799          Frozen                          !
 ! X127  R(127,-1)               8.875          Frozen                          !
 ! Y127  R(127,-2)              18.456          Frozen                          !
 ! Z127  R(127,-3)             -19.24           Frozen                          !
 ! X128  R(128,-1)               8.471          Frozen                          !
 ! Y128  R(128,-2)              20.586          Frozen                          !
 ! Z128  R(128,-3)             -17.954          Frozen                          !
 ! X129  R(129,-1)               9.851          Frozen                          !
 ! Y129  R(129,-2)              19.833          Frozen                          !
 ! Z129  R(129,-3)             -17.581          Frozen                          !
 ! X130  R(130,-1)              10.366          Frozen                          !
 ! Y130  R(130,-2)              20.533          Frozen                          !
 ! Z130  R(130,-3)             -16.38           Frozen                          !
 ! X131  R(131,-1)              10.74           Frozen                          !
 ! Y131  R(131,-2)              19.706          Frozen                          !
 ! Z131  R(131,-3)             -18.758          Frozen                          !
 ! X132  R(132,-1)               9.403          Frozen                          !
 ! Y132  R(132,-2)              18.373          Frozen                          !
 ! Z132  R(132,-3)             -17.114          Frozen                          !
 ! X133  R(133,-1)               9.967          Frozen                          !
 ! Y133  R(133,-2)              17.813          Frozen                          !
 ! Z133  R(133,-3)             -15.956          Frozen                          !
 ! X134  R(134,-1)               9.283          Frozen                          !
 ! Y134  R(134,-2)              18.049          Frozen                          !
 ! Z134  R(134,-3)             -15.141          Frozen                          !
 ! X135  R(135,-1)              10.946          Frozen                          !
 ! Y135  R(135,-2)              18.241          Frozen                          !
 ! Z135  R(135,-3)             -15.743          Frozen                          !
 ! X136  R(136,-1)              10.097          Frozen                          !
 ! Y136  R(136,-2)              16.306          Frozen                          !
 ! Z136  R(136,-3)             -16.077          Frozen                          !
 ! X137  R(137,-1)               9.8            Frozen                          !
 ! Y137  R(137,-2)              15.883          Frozen                          !
 ! Z137  R(137,-3)             -15.117          Frozen                          !
 ! X138  R(138,-1)               9.135          Frozen                          !
 ! Y138  R(138,-2)              15.769          Frozen                          !
 ! Z138  R(138,-3)             -17.025          Frozen                          !
 ! X139  R(139,-1)               9.686          Frozen                          !
 ! Y139  R(139,-2)              14.568          Frozen                          !
 ! Z139  R(139,-3)             -17.489          Frozen                          !
 ! X140  R(140,-1)               9.53           Frozen                          !
 ! Y140  R(140,-2)              13.784          Frozen                          !
 ! Z140  R(140,-3)             -16.748          Frozen                          !
 ! X141  R(141,-1)               8.935          Frozen                          !
 ! Y141  R(141,-2)              14.059          Frozen                          !
 ! Z141  R(141,-3)             -18.681          Frozen                          !
 ! X142  R(142,-1)               9.003          Frozen                          !
 ! Y142  R(142,-2)              14.74           Frozen                          !
 ! Z142  R(142,-3)             -19.882          Frozen                          !
 ! X143  R(143,-1)               9.64           Frozen                          !
 ! Y143  R(143,-2)              15.611          Frozen                          !
 ! Z143  R(143,-3)             -19.933          Frozen                          !
 ! X144  R(144,-1)               8.367          Frozen                          !
 ! Y144  R(144,-2)              14.339          Frozen                          !
 ! Z144  R(144,-3)             -20.996          Frozen                          !
 ! X145  R(145,-1)               8.459          Frozen                          !
 ! Y145  R(145,-2)              15.107          Frozen                          !
 ! Z145  R(145,-3)             -22.281          Frozen                          !
 ! X146  R(146,-1)               9.5            Frozen                          !
 ! Y146  R(146,-2)              15.159          Frozen                          !
 ! Z146  R(146,-3)             -22.6            Frozen                          !
 ! X147  R(147,-1)               7.869          Frozen                          !
 ! Y147  R(147,-2)              14.605          Frozen                          !
 ! Z147  R(147,-3)             -23.048          Frozen                          !
 ! X148  R(148,-1)               8.075          Frozen                          !
 ! Y148  R(148,-2)              16.116          Frozen                          !
 ! Z148  R(148,-3)             -22.13           Frozen                          !
 ! X149  R(149,-1)               7.588          Frozen                          !
 ! Y149  R(149,-2)              13.129          Frozen                          !
 ! Z149  R(149,-3)             -20.931          Frozen                          !
 ! X150  R(150,-1)               6.974          Frozen                          !
 ! Y150  R(150,-2)              12.69           Frozen                          !
 ! Z150  R(150,-3)             -21.898          Frozen                          !
 ! X151  R(151,-1)               7.578          Frozen                          !
 ! Y151  R(151,-2)              12.497          Frozen                          !
 ! Z151  R(151,-3)             -19.702          Frozen                          !
 ! X152  R(152,-1)               7.629          Frozen                          !
 ! Y152  R(152,-2)              11.441          Frozen                          !
 ! Z152  R(152,-3)             -17.47           Frozen                          !
 ! X153  R(153,-1)               8.217          Frozen                          !
 ! Y153  R(153,-2)              12.891          Frozen                          !
 ! Z153  R(153,-3)             -18.561          Frozen                          !
 ! X154  R(154,-1)               8.139          Frozen                          !
 ! Y154  R(154,-2)              12.252          Frozen                          !
 ! Z154  R(154,-3)             -17.523          Frozen                          !
 ! X155  R(155,-1)              11.475          Frozen                          !
 ! Y155  R(155,-2)              15.795          Frozen                          !
 ! Z155  R(155,-3)             -16.544          Frozen                          !
 ! X156  R(156,-1)              12.15           Frozen                          !
 ! Y156  R(156,-2)              16.594          Frozen                          !
 ! Z156  R(156,-3)             -16.851          Frozen                          !
 ! X157  R(157,-1)              11.141          Frozen                          !
 ! Y157  R(157,-2)              14.91           Frozen                          !
 ! Z157  R(157,-3)             -17.758          Frozen                          !
 ! X158  R(158,-1)              11.746          Frozen                          !
 ! Y158  R(158,-2)              15.219          Frozen                          !
 ! Z158  R(158,-3)             -18.611          Frozen                          !
 ! X159  R(159,-1)              11.356          Frozen                          !
 ! Y159  R(159,-2)              13.868          Frozen                          !
 ! Z159  R(159,-3)             -17.519          Frozen                          !
 ! X160  R(160,-1)              12.117          Frozen                          !
 ! Y160  R(160,-2)              15.056          Frozen                          !
 ! Z160  R(160,-3)             -15.465          Frozen                          !
 ! X161  R(161,-1)              13.048          Frozen                          !
 ! Y161  R(161,-2)              13.763          Frozen                          !
 ! Z161  R(161,-3)             -15.738          Frozen                          !
 ! X162  R(162,-1)              13.727          Frozen                          !
 ! Y162  R(162,-2)              13.449          Frozen                          !
 ! Z162  R(162,-3)             -14.463          Frozen                          !
 ! X163  R(163,-1)              13.887          Frozen                          !
 ! Y163  R(163,-2)              13.933          Frozen                          !
 ! Z163  R(163,-3)             -16.942          Frozen                          !
 ! X164  R(164,-1)              12.006          Frozen                          !
 ! Y164  R(164,-2)              12.591          Frozen                          !
 ! Z164  R(164,-3)             -16.027          Frozen                          !
 ! X165  R(165,-1)              11.172          Frozen                          !
 ! Y165  R(165,-2)              12.118          Frozen                          !
 ! Z165  R(165,-3)             -14.987          Frozen                          !
 ! X166  R(166,-1)              10.195          Frozen                          !
 ! Y166  R(166,-2)              12.581          Frozen                          !
 ! Z166  R(166,-3)             -15.126          Frozen                          !
 ! X167  R(167,-1)              11.569          Frozen                          !
 ! Y167  R(167,-2)              12.395          Frozen                          !
 ! Z167  R(167,-3)             -14.01           Frozen                          !
 ! X168  R(168,-1)              11.024          Frozen                          !
 ! Y168  R(168,-2)              10.609          Frozen                          !
 ! Z168  R(168,-3)             -15.056          Frozen                          !
 ! X169  R(169,-1)              10.413          Frozen                          !
 ! Y169  R(169,-2)              10.279          Frozen                          !
 ! Z169  R(169,-3)             -14.216          Frozen                          !
 ! X170  R(170,-1)              10.25           Frozen                          !
 ! Y170  R(170,-2)              10.259          Frozen                          !
 ! Z170  R(170,-3)             -16.226          Frozen                          !
 ! X171  R(171,-1)              11.065          Frozen                          !
 ! Y171  R(171,-2)               9.634          Frozen                          !
 ! Z171  R(171,-3)             -17.193          Frozen                          !
 ! X172  R(172,-1)              10.734          Frozen                          !
 ! Y172  R(172,-2)               8.628          Frozen                          !
 ! Z172  R(172,-3)             -17.45           Frozen                          !
 ! X173  R(173,-1)              10.931          Frozen                          !
 ! Y173  R(173,-2)              10.359          Frozen                          !
 ! Z173  R(173,-3)             -18.46           Frozen                          !
 ! X174  R(174,-1)              11.451          Frozen                          !
 ! Y174  R(174,-2)              11.585          Frozen                          !
 ! Z174  R(174,-3)             -18.779          Frozen                          !
 ! X175  R(175,-1)              12.078          Frozen                          !
 ! Y175  R(175,-2)              12.109          Frozen                          !
 ! Z175  R(175,-3)             -18.072          Frozen                          !
 ! X176  R(176,-1)              11.162          Frozen                          !
 ! Y176  R(176,-2)              11.983          Frozen                          !
 ! Z176  R(176,-3)             -19.999          Frozen                          !
 ! X177  R(177,-1)              10.398          Frozen                          !
 ! Y177  R(177,-2)              10.948          Frozen                          !
 ! Z177  R(177,-3)             -20.512          Frozen                          !
 ! X178  R(178,-1)               9.778          Frozen                          !
 ! Y178  R(178,-2)              10.75           Frozen                          !
 ! Z178  R(178,-3)             -21.766          Frozen                          !
 ! X179  R(179,-1)               9.836          Frozen                          !
 ! Y179  R(179,-2)              11.632          Frozen                          !
 ! Z179  R(179,-3)             -22.771          Frozen                          !
 ! X180  R(180,-1)               9.371          Frozen                          !
 ! Y180  R(180,-2)              11.433          Frozen                          !
 ! Z180  R(180,-3)             -23.645          Frozen                          !
 ! X181  R(181,-1)              10.345          Frozen                          !
 ! Y181  R(181,-2)              12.497          Frozen                          !
 ! Z181  R(181,-3)             -22.655          Frozen                          !
 ! X182  R(182,-1)               9.092          Frozen                          !
 ! Y182  R(182,-2)               9.603          Frozen                          !
 ! Z182  R(182,-3)             -21.944          Frozen                          !
 ! X183  R(183,-1)               9.033          Frozen                          !
 ! Y183  R(183,-2)               8.722          Frozen                          !
 ! Z183  R(183,-3)             -20.938          Frozen                          !
 ! X184  R(184,-1)               8.49           Frozen                          !
 ! Y184  R(184,-2)               7.796          Frozen                          !
 ! Z184  R(184,-3)             -21.06           Frozen                          !
 ! X185  R(185,-1)               9.57           Frozen                          !
 ! Y185  R(185,-2)               8.799          Frozen                          !
 ! Z185  R(185,-3)             -19.723          Frozen                          !
 ! X186  R(186,-1)              10.245          Frozen                          !
 ! Y186  R(186,-2)               9.945          Frozen                          !
 ! Z186  R(186,-3)             -19.574          Frozen                          !
 ! X187  R(187,-1)              12.333          Frozen                          !
 ! Y187  R(187,-2)               9.833          Frozen                          !
 ! Z187  R(187,-3)             -15.156          Frozen                          !
 ! X188  R(188,-1)              13.187          Frozen                          !
 ! Y188  R(188,-2)              10.397          Frozen                          !
 ! Z188  R(188,-3)             -14.78           Frozen                          !
 ! X189  R(189,-1)              12.5            Frozen                          !
 ! Y189  R(189,-2)               9.596          Frozen                          !
 ! Z189  R(189,-3)             -16.654          Frozen                          !
 ! X190  R(190,-1)              13.467          Frozen                          !
 ! Y190  R(190,-2)               9.98           Frozen                          !
 ! Z190  R(190,-3)             -16.978          Frozen                          !
 ! X191  R(191,-1)              12.446          Frozen                          !
 ! Y191  R(191,-2)               8.527          Frozen                          !
 ! Z191  R(191,-3)             -16.861          Frozen                          !
 ! X192  R(192,-1)              12.246          Frozen                          !
 ! Y192  R(192,-2)               8.609          Frozen                          !
 ! Z192  R(192,-3)             -14.424          Frozen                          !
 ! X193  R(193,-1)               6.239          Frozen                          !
 ! Y193  R(193,-2)              10.725          Frozen                          !
 ! Z193  R(193,-3)             -20.584          Frozen                          !
 ! X196  R(196,-1)              13.1299         Frozen                          !
 ! Y196  R(196,-2)               8.2876         Frozen                          !
 ! Z196  R(196,-3)             -14.2318         Frozen                          !
 ! X197  R(197,-1)               2.5859         Frozen                          !
 ! Y197  R(197,-2)               8.3596         Frozen                          !
 ! Z197  R(197,-3)             -12.7119         Frozen                          !
 ! X198  R(198,-1)               5.9153         Frozen                          !
 ! Y198  R(198,-2)               4.4549         Frozen                          !
 ! Z198  R(198,-3)             -29.2531         Frozen                          !
 ! X199  R(199,-1)               6.4168         Frozen                          !
 ! Y199  R(199,-2)               4.3172         Frozen                          !
 ! Z199  R(199,-3)             -30.0601         Frozen                          !
 ! X200  R(200,-1)               2.9414         Frozen                          !
 ! Y200  R(200,-2)              20.1197         Frozen                          !
 ! Z200  R(200,-3)             -21.5701         Frozen                          !
 ! X201  R(201,-1)               2.3178         Frozen                          !
 ! Y201  R(201,-2)              20.7005         Frozen                          !
 ! Z201  R(201,-3)             -22.0123         Frozen                          !
 ! R1    R(193,194)              2.83           estimate D2E/DX2                !
 ! R2    R(193,195)              2.83           estimate D2E/DX2                !
 ! A1    A(54,193,194)          46.736          estimate D2E/DX2                !
 ! A2    A(54,193,195)         133.264          estimate D2E/DX2                !
 ! A3    A(55,193,194)         102.5529         estimate D2E/DX2                !
 ! A4    A(55,193,195)          77.4471         estimate D2E/DX2                !
 ! A5    A(150,193,194)         46.6482         estimate D2E/DX2                !
 ! A6    A(150,193,195)        133.3518         estimate D2E/DX2                !
 ! A7    A(151,193,194)        102.6579         estimate D2E/DX2                !
 ! A8    A(151,193,195)         77.3421         estimate D2E/DX2                !
 ! A9    L(194,193,195,54,-1)  180.0            estimate D2E/DX2                !
 ! A10   L(194,193,195,54,-2)  180.0            estimate D2E/DX2                !
 ! D1    D(53,54,193,194)      177.6989         estimate D2E/DX2                !
 ! D2    D(53,54,193,195)       -2.3011         estimate D2E/DX2                !
 ! D3    D(53,55,193,194)       -2.5818         estimate D2E/DX2                !
 ! D4    D(53,55,193,195)      177.4182         estimate D2E/DX2                !
 ! D5    D(57,55,193,194)      178.7708         estimate D2E/DX2                !
 ! D6    D(57,55,193,195)       -1.2292         estimate D2E/DX2                !
 ! D7    D(149,150,193,194)   -178.8157         estimate D2E/DX2                !
 ! D8    D(149,150,193,195)      1.1843         estimate D2E/DX2                !
 ! D9    D(149,151,193,194)     -1.4802         estimate D2E/DX2                !
 ! D10   D(149,151,193,195)    178.5198         estimate D2E/DX2                !
 ! D11   D(153,151,193,194)   -178.3945         estimate D2E/DX2                !
 ! D12   D(153,151,193,195)      1.6055         estimate D2E/DX2                !
 --------------------------------------------------------------------------------
 Trust Radius=3.00D-01 FncErr=5.00D-06 GrdErr=5.00D-06 EigMax=2.50D+02 EigMin=1.00D-04
 Number of steps in this run=    631 maximum allowed number of steps=   1206.
 GradGradGradGradGradGradGradGradGradGradGradGradGradGradGradGradGradGrad

 Symmetry turned off by external request.
 Stoichiometry    C60H74Cl2HgN18O40P6
                          Input orientation:                          
 ---------------------------------------------------------------------
 Center     Atomic      Atomic             Coordinates (Angstroms)
 Number     Number       Type             X           Y           Z
 ---------------------------------------------------------------------
      1         15           0        4.252000    4.211000  -29.566000
      2          8           0        4.052661    3.933689  -31.031533
      3          8           0        3.482706    5.445311  -29.179882
      4          8           0        3.728000    2.971000  -28.715000
      5          6           0        2.840000    3.187000  -27.645000
      6          1           0        2.017000    2.478000  -27.735000
      7          1           0        2.451000    4.203000  -27.707000
      8          6           0        3.522000    2.994000  -26.300000
      9          1           0        3.902000    1.976000  -26.212000
     10          8           0        4.725000    3.848000  -26.201000
     11          6           0        4.645000    4.488000  -24.950000
     12          1           0        5.065000    3.783000  -24.232000
     13          7           0        5.544000    5.688000  -24.812000
     14          6           0        5.575000    6.637000  -25.799000
     15          1           0        4.903000    6.514000  -26.635000
     16          6           0        6.342000    7.737000  -25.744000
     17          6           0        6.384000    8.724000  -26.869000
     18          1           0        5.386000    9.128000  -27.036000
     19          1           0        7.067000    9.535000  -26.616000
     20          1           0        6.730000    8.228000  -27.776000
     21          6           0        7.123000    7.967000  -24.555000
     22          8           0        7.835000    8.955000  -24.416000
     23          7           0        7.010000    6.997000  -23.585000
     24          1           0        7.609000    7.147000  -22.687000
     25          6           0        6.251000    5.864000  -23.635000
     26          8           0        6.231000    5.075000  -22.714000
     27          6           0        2.641000    3.404000  -25.109000
     28          1           0        1.575000    3.463000  -25.329000
     29          6           0        3.176000    4.792000  -24.826000
     30          1           0        2.455000    5.536000  -25.164000
     31          1           0        3.341000    4.907000  -23.755000
     32          8           0        2.839000    2.532000  -23.967000
     33         15           0        2.950000    3.182000  -22.493000
     34          8           0        1.948000    4.267000  -22.345000
     35          8           0        4.384000    3.373000  -22.192000
     36          8           0        2.479000    2.077000  -21.457000
     37          6           0        1.639000    2.478000  -20.351000
     38          1           0        1.346000    1.556000  -19.848000
     39          1           0        0.751000    2.980000  -20.735000
     40          6           0        2.350000    3.406000  -19.338000
     41          1           0        2.980000    2.785000  -18.701000
     42          8           0        3.278000    4.321000  -19.987000
     43          6           0        3.424000    5.488000  -19.204000
     44          1           0        4.255000    5.400000  -18.504000
     45          7           0        3.848000    6.687000  -20.102000
     46          6           0        3.384000    6.780000  -21.411000
     47          1           0        2.707000    6.015000  -21.761000
     48          6           0        3.706000    7.800000  -22.249000
     49          6           0        3.195000    7.884000  -23.653000
     50          1           0        2.106000    7.922000  -23.642000
     51          1           0        3.585000    8.784000  -24.129000
     52          1           0        3.522000    7.007000  -24.212000
     53          6           0        4.579000    8.825000  -21.765000
     54          8           0        4.920000    9.781000  -22.462000
     55          7           0        5.001000    8.669000  -20.463000
     56          1           0        5.717000    8.329000  -18.131000
     57          6           0        4.691000    7.657000  -19.590000
     58          8           0        5.132000    7.639000  -18.453000
     59          6           0        1.403000    4.300000  -18.539000
     60          1           0        0.454000    4.396000  -19.067000
     61          6           0        2.097000    5.686000  -18.466000
     62          1           0        1.341000    6.467000  -18.383000
     63          1           0        2.751000    5.720000  -17.595000
     64          8           0        1.126000    3.726000  -17.235000
     65         15           0        2.200000    3.763000  -16.033000
     66          8           0        3.555000    3.434000  -16.526000
     67          8           0        1.611000    2.928000  -14.966000
     68          8           0        2.182000    5.277000  -15.511000
     69          6           0        3.406000    5.926000  -15.154000
     70          1           0        4.032000    5.962000  -16.045000
     71          1           0        3.928000    5.384000  -14.365000
     72          6           0        3.126000    7.334000  -14.687000
     73          1           0        3.844000    7.604000  -13.913000
     74          8           0        3.377000    8.280000  -15.763000
     75          6           0        2.345000    9.233000  -15.766000
     76          1           0        2.573000   10.084000  -15.123000
     77          7           0        2.265000    9.854000  -17.134000
     78          6           0        1.551000    9.217000  -18.130000
     79          1           0        1.030000    8.308000  -17.870000
     80          6           0        1.431000    9.695000  -19.379000
     81          6           0        0.650000    8.970000  -20.432000
     82          1           0       -0.386000    8.866000  -20.110000
     83          1           0        0.685000    9.534000  -21.364000
     84          1           0        1.082000    7.982000  -20.589000
     85          6           0        2.077000   10.939000  -19.693000
     86          8           0        2.016000   11.445000  -20.808000
     87          7           0        2.765000   11.525000  -18.651000
     88          1           0        3.248000   12.475000  -18.879000
     89          6           0        2.906000   11.052000  -17.374000
     90          8           0        3.549000   11.656000  -16.527000
     91          6           0        1.682000    7.561000  -14.239000
     92          1           0        1.083000    6.654000  -14.158000
     93          6           0        1.106000    8.457000  -15.343000
     94          1           0        0.290000    7.937000  -15.845000
     95          1           0        0.731000    9.381000  -14.903000
     96          8           0        1.681000    8.211000  -12.996000
     97         15           0        4.535000   20.541000  -22.025000
     98          8           0        4.619669   22.028457  -22.236484
     99          8           0        4.896315   19.831441  -23.301871
    100          8           0        5.545000   20.111000  -20.876000
    101          6           0        5.081000   20.087000  -19.529000
    102          1           0        4.364000   19.272000  -19.431000
    103          1           0        4.589000   21.033000  -19.301000
    104          6           0        6.219000   19.869000  -18.551000
    105          1           0        5.988000   20.377000  -17.615000
    106          8           0        6.279000   18.481000  -18.201000
    107          6           0        7.174000   17.828000  -19.066000
    108          1           0        7.834000   17.128000  -18.553000
    109          7           0        6.403000   16.965000  -19.949000
    110          6           0        6.144000   17.142000  -21.280000
    111          1           0        6.560000   17.986000  -21.811000
    112          7           0        5.425000   16.177000  -21.806000
    113          6           0        5.192000   15.324000  -20.739000
    114          6           0        4.487000   14.114000  -20.628000
    115          7           0        3.865000   13.531000  -21.658000
    116          1           0        3.372000   12.660000  -21.523000
    117          1           0        3.888000   13.962000  -22.571000
    118          7           0        4.454000   13.521000  -19.412000
    119          6           0        5.081000   14.101000  -18.385000
    120          1           0        5.065000   13.646000  -17.406000
    121          7           0        5.773000   15.231000  -18.368000
    122          6           0        5.785000   15.797000  -19.589000
    123          6           0        7.609000   20.199000  -19.073000
    124          1           0        7.625000   21.018000  -19.792000
    125          6           0        8.031000   18.897000  -19.771000
    126          1           0        8.322000   19.113000  -20.799000
    127          1           0        8.875000   18.456000  -19.240000
    128          8           0        8.471000   20.586000  -17.954000
    129         15           0        9.851000   19.833000  -17.581000
    130          8           0       10.366000   20.533000  -16.380000
    131          8           0       10.740000   19.706000  -18.758000
    132          8           0        9.403000   18.373000  -17.114000
    133          6           0        9.967000   17.813000  -15.956000
    134          1           0        9.283000   18.049000  -15.141000
    135          1           0       10.946000   18.241000  -15.743000
    136          6           0       10.097000   16.306000  -16.077000
    137          1           0        9.800000   15.883000  -15.117000
    138          8           0        9.135000   15.769000  -17.025000
    139          6           0        9.686000   14.568000  -17.489000
    140          1           0        9.530000   13.784000  -16.748000
    141          7           0        8.935000   14.059000  -18.681000
    142          6           0        9.003000   14.740000  -19.882000
    143          1           0        9.640000   15.611000  -19.933000
    144          6           0        8.367000   14.339000  -20.996000
    145          6           0        8.459000   15.107000  -22.281000
    146          1           0        9.500000   15.159000  -22.600000
    147          1           0        7.869000   14.605000  -23.048000
    148          1           0        8.075000   16.116000  -22.130000
    149          6           0        7.588000   13.129000  -20.931000
    150          8           0        6.974000   12.690000  -21.898000
    151          7           0        7.578000   12.497000  -19.702000
    152          1           0        7.629000   11.441000  -17.470000
    153          6           0        8.217000   12.891000  -18.561000
    154          8           0        8.139000   12.252000  -17.523000
    155          6           0       11.475000   15.795000  -16.544000
    156          1           0       12.150000   16.594000  -16.851000
    157          6           0       11.141000   14.910000  -17.758000
    158          1           0       11.746000   15.219000  -18.611000
    159          1           0       11.356000   13.868000  -17.519000
    160          8           0       12.117000   15.056000  -15.465000
    161         15           0       13.048000   13.763000  -15.738000
    162          8           0       13.727000   13.449000  -14.463000
    163          8           0       13.887000   13.933000  -16.942000
    164          8           0       12.006000   12.591000  -16.027000
[...]
 Alpha virt. eigenvalues --        2.96636       2.96929       2.97080       2.97548       2.97901
 Alpha virt. eigenvalues --        2.98117       2.98392       2.98789       2.98967       2.99096
 Alpha virt. eigenvalues --        2.99382       2.99559       2.99949       3.00535       3.01037
 Alpha virt. eigenvalues --        3.01349       3.02051       3.02189       3.02560       3.03184
 Alpha virt. eigenvalues --        3.03443       3.03680       3.03876       3.04281       3.04623
 Alpha virt. eigenvalues --        3.04957       3.05088       3.05641       3.05917       3.06757
 Alpha virt. eigenvalues --        3.06861       3.07035       3.07138       3.08170       3.08433
 Alpha virt. eigenvalues --        3.08556       3.09338       3.09606       3.09982       3.11092
 Alpha virt. eigenvalues --        3.11276       3.11684       3.12470       3.12889       3.13502
 Alpha virt. eigenvalues --        3.13892       3.13978       3.14199       3.14879       3.15013
 Alpha virt. eigenvalues --        3.16390       3.18745       3.19099       3.19404       3.19761
 Alpha virt. eigenvalues --        3.19807       3.21429       3.23035       3.24301       3.24436
 Alpha virt. eigenvalues --        3.25183       3.25771       3.26276       3.28744       3.29835
 Alpha virt. eigenvalues --        3.30239       3.30256       3.30671       3.30993       3.31272
 Alpha virt. eigenvalues --        3.31368       3.31542       3.32658       3.32701       3.33639
 Alpha virt. eigenvalues --        3.34104       3.34202       3.34577       3.35199       3.36688
 Alpha virt. eigenvalues --        3.37696       3.38079       3.38218       3.38707       3.39083
 Alpha virt. eigenvalues --        3.39248       3.39457       3.39588       3.40546       3.40714
 Alpha virt. eigenvalues --        3.40736       3.41072       3.41960       3.42091       3.42298
 Alpha virt. eigenvalues --        3.43093       3.43487       3.43867       3.43970       3.44271
 Alpha virt. eigenvalues --        3.44413       3.45053       3.45191       3.45442       3.45981
 Alpha virt. eigenvalues --        3.46629       3.46869       3.47064       3.47478       3.47547
 Alpha virt. eigenvalues --        3.47905       3.48132       3.48324       3.48707       3.48827
 Alpha virt. eigenvalues --        3.49428       3.49784       3.50103       3.50704       3.51321
 Alpha virt. eigenvalues --        3.51707       3.51949       3.53028       3.53257       3.54879
 Alpha virt. eigenvalues --        3.55830       3.55920       3.56058       3.56368       3.57145
 Alpha virt. eigenvalues --        3.57233       3.58128       3.58520       3.59045       3.59800
 Alpha virt. eigenvalues --        3.59965       3.60199       3.60861       3.61333       3.63015
 Alpha virt. eigenvalues --        3.63970       3.64351       3.67341       3.69325       3.70356
 Alpha virt. eigenvalues --        3.70822       3.72227       3.72367       3.79302       3.84341
 Alpha virt. eigenvalues --        3.86078       3.87956       3.88043       3.89031       3.91120
 Alpha virt. eigenvalues --        3.91822       3.92279       3.94233       3.96257       3.96283
 Alpha virt. eigenvalues --        3.96841       3.99161       4.02715       4.03080       4.03779
 Alpha virt. eigenvalues --        4.04158       4.05043       4.06233       4.07225       4.07682
 Alpha virt. eigenvalues --        4.08111       4.08542       4.09158       4.10360       4.11236
 Alpha virt. eigenvalues --        4.11702       4.12002       4.12909       4.13473       4.14603
 Alpha virt. eigenvalues --        4.15169       4.16157       4.16508       4.17948       4.18412
 Alpha virt. eigenvalues --        4.19790       4.20888       4.21471       4.21663       4.22952
 Alpha virt. eigenvalues --        4.24736       4.26133       4.26739       4.27147       4.27914
 Alpha virt. eigenvalues --        4.29192       4.29922       4.30486       4.31362       4.32423
 Alpha virt. eigenvalues --        4.33904       4.34560       4.35142       4.35837       4.36822
 Alpha virt. eigenvalues --        4.38036       4.38205       4.38807       4.39474       4.41203
 Alpha virt. eigenvalues --        4.41841       4.42603       4.44076       4.44733       4.45819
 Alpha virt. eigenvalues --        4.46090       4.46763       4.48259       4.48735       4.48982
 Alpha virt. eigenvalues --        4.49547       4.49806       4.51177       4.51574       4.52505
 Alpha virt. eigenvalues --        4.53321       4.53532       4.54127       4.55686       4.58665
 Alpha virt. eigenvalues --        4.58973       4.60027       4.60576       4.61801       4.63848
 Alpha virt. eigenvalues --        4.64998       4.65749       4.68277       4.68363       4.70157
 Alpha virt. eigenvalues --        4.70551       4.71099       4.71881       4.72356       4.73849
 Alpha virt. eigenvalues --        4.74294       4.75045       4.75185       4.75678       4.76744
 Alpha virt. eigenvalues --        4.77363       4.78391       4.78549       4.79460       4.81862
 Alpha virt. eigenvalues --        4.82302       4.83995       4.84671       4.86395       4.89083
 Alpha virt. eigenvalues --        4.90537       4.91723       4.92157       4.92749       4.95696
 Alpha virt. eigenvalues --        4.97543       5.56653       7.65122      10.41320
          Condensed to atoms (all electrons):
 Mulliken charges:
               1
     1  P    1.008135
     2  O   -0.697473
     3  O   -0.716493
     4  O   -0.535391
     5  C    0.043637
     6  H    0.115828
     7  H    0.125238
     8  C    0.178119
     9  H    0.110843
    10  O   -0.566066
    11  C    0.350669
    12  H    0.176256
    13  N   -0.574788
    14  C    0.117273
    15  H    0.146530
    16  C   -0.005026
    17  C   -0.382413
    18  H    0.130512
    19  H    0.127166
    20  H    0.129372
    21  C    0.592868
    22  O   -0.544074
    23  N   -0.647298
    24  H    0.321301
    25  C    0.781772
    26  O   -0.518093
    27  C    0.116464
    28  H    0.111922
    29  C   -0.260327
    30  H    0.143331
    31  H    0.150788
    32  O   -0.592920
    33  P    1.186664
    34  O   -0.751172
    35  O   -0.666881
    36  O   -0.558917
    37  C    0.036321
    38  H    0.114542
    39  H    0.106405
    40  C    0.185651
    41  H    0.126624
    42  O   -0.511849
    43  C    0.315580
    44  H    0.146074
    45  N   -0.566619
    46  C    0.146007
    47  H    0.192332
    48  C   -0.012942
    49  C   -0.387537
    50  H    0.129775
    51  H    0.132076
    52  H    0.137425
    53  C    0.659778
    54  O   -0.582272
    55  N   -0.711151
    56  H    0.328210
    57  C    0.804809
    58  O   -0.426867
    59  C    0.128291
    60  H    0.120420
    61  C   -0.236595
    62  H    0.131759
    63  H    0.137218
    64  O   -0.567326
    65  P    1.042978
    66  O   -0.722963
    67  O   -0.654479
    68  O   -0.567473
    69  C    0.063433
    70  H    0.122105
    71  H    0.116286
    72  C    0.119007
    73  H    0.118359
    74  O   -0.523396
    75  C    0.311150
    76  H    0.139877
    77  N   -0.555645
    78  C    0.153976
    79  H    0.137126
    80  C   -0.010750
    81  C   -0.388891
    82  H    0.131451
    83  H    0.134500
    84  H    0.131585
    85  C    0.610862
    86  O   -0.578116
    87  N   -0.650448
    88  H    0.344898
    89  C    0.798926
    90  O   -0.567046
    91  C    0.147076
    92  H    0.128074
    93  C   -0.226157
    94  H    0.150125
    95  H    0.132744
    96  O   -0.587465
    97  P    0.979407
    98  O   -0.702484
    99  O   -0.690927
   100  O   -0.535557
   101  C    0.060924
   102  H    0.133334
   103  H    0.117178
   104  C    0.101114
   105  H    0.126200
   106  O   -0.509714
   107  C    0.295587
   108  H    0.158076
   109  N   -0.514994
   110  C    0.279368
   111  H    0.154230
   112  N   -0.583882
   113  C    0.184809
   114  C    0.527712
   115  N   -0.653035
   116  H    0.308996
   117  H    0.269147
   118  N   -0.619349
   119  C    0.243773
   120  H    0.115532
   121  N   -0.551609
   122  C    0.516383
   123  C    0.188235
   124  H    0.123085
   125  C   -0.287270
   126  H    0.145679
   127  H    0.152917
   128  O   -0.581906
   129  P    1.036646
   130  O   -0.696719
   131  O   -0.691142
   132  O   -0.563660
   133  C    0.049968
   134  H    0.104216
   135  H    0.122797
   136  C    0.173985
   137  H    0.123323
   138  O   -0.517898
   139  C    0.297506
   140  H    0.149913
   141  N   -0.537788
   142  C    0.142243
   143  H    0.168515
   144  C    0.000979
   145  C   -0.374905
   146  H    0.128534
   147  H    0.136189
   148  H    0.137298
   149  C    0.684316
   150  O   -0.584012
   151  N   -0.710526
   152  H    0.328565
   153  C    0.821346
   154  O   -0.436594
   155  C    0.126995
   156  H    0.125469
   157  C   -0.237659
   158  H    0.149920
   159  H    0.140451
   160  O   -0.605838
   161  P    1.118018
   162  O   -0.683937
   163  O   -0.705700
   164  O   -0.584323
   165  C    0.055405
   166  H    0.110867
   167  H    0.122127
   168  C    0.140419
   169  H    0.121231
   170  O   -0.512424
   171  C    0.293791
   172  H    0.137775
   173  N   -0.518141
   174  C    0.277775
   175  H    0.164749
   176  N   -0.588111
   177  C    0.195190
   178  C    0.475863
   179  N   -0.638057
   180  H    0.304976
   181  H    0.303854
   182  N   -0.516250
   183  C    0.242351
   184  H    0.082076
   185  N   -0.551037
   186  C    0.521989
   187  C    0.140559
   188  H    0.117089
   189  C   -0.237515
   190  H    0.147588
   191  H    0.134411
   192  O   -0.587127
   193  Hg   1.086097
   194  Cl  -0.903741
   195  Cl  -0.668922
   196  H    0.330177
   197  H    0.323738
   198  O   -0.642921
   199  H    0.335170
   200  O   -0.655402
   201  H    0.341725
 Sum of Mulliken charges =  -6.00000
 Mulliken charges with hydrogens summed into heavy atoms:
               1
     1  P    1.008135
     2  O   -0.697473
     3  O   -0.716493
     4  O   -0.535391
     5  C    0.284703
     8  C    0.288962
    10  O   -0.566066
    11  C    0.526925
    13  N   -0.574788
    14  C    0.263803
    16  C   -0.005026
    17  C    0.004637
    21  C    0.592868
    22  O   -0.544074
    23  N   -0.325997
    25  C    0.781772
    26  O   -0.518093
    27  C    0.228386
    29  C    0.033792
    32  O   -0.592920
    33  P    1.186664
    34  O   -0.751172
    35  O   -0.666881
    36  O   -0.558917
    37  C    0.257268
    40  C    0.312275
    42  O   -0.511849
    43  C    0.461654
    45  N   -0.566619
    46  C    0.338340
    48  C   -0.012942
    49  C    0.011739
    53  C    0.659778
    54  O   -0.582272
    55  N   -0.711151
    57  C    0.804809
    58  O   -0.098656
    59  C    0.248712
    61  C    0.032383
    64  O   -0.567326
    65  P    1.042978
    66  O   -0.722963
    67  O   -0.654479
    68  O   -0.567473
    69  C    0.301824
    72  C    0.237365
    74  O   -0.523396
    75  C    0.451026
    77  N   -0.555645
    78  C    0.291103
    80  C   -0.010750
    81  C    0.008645
    85  C    0.610862
    86  O   -0.578116
    87  N   -0.305549
    89  C    0.798926
    90  O   -0.567046
    91  C    0.275150
    93  C    0.056711
    96  O   -0.263727
    97  P    0.979407
    98  O   -0.702484
    99  O   -0.690927
   100  O   -0.535557
   101  C    0.311435
   104  C    0.227314
   106  O   -0.509714
   107  C    0.453663
   109  N   -0.514994
   110  C    0.433598
   112  N   -0.583882
   113  C    0.184809
   114  C    0.527712
   115  N   -0.074892
   118  N   -0.619349
   119  C    0.359305
   121  N   -0.551609
   122  C    0.516383
   123  C    0.311321
   125  C    0.011326
   128  O   -0.581906
   129  P    1.036646
   130  O   -0.696719
   131  O   -0.691142
   132  O   -0.563660
   133  C    0.276981
   136  C    0.297308
   138  O   -0.517898
   139  C    0.447419
   141  N   -0.537788
   142  C    0.310759
   144  C    0.000979
   145  C    0.027115
   149  C    0.684316
   150  O   -0.584012
   151  N   -0.710526
   153  C    0.821346
   154  O   -0.108029
   155  C    0.252463
   157  C    0.052712
   160  O   -0.605838
   161  P    1.118018
   162  O   -0.683937
   163  O   -0.705700
   164  O   -0.584323
   165  C    0.288400
   168  C    0.261651
   170  O   -0.512424
   171  C    0.431565
   173  N   -0.518141
   174  C    0.442525
   176  N   -0.588111
   177  C    0.195190
   178  C    0.475863
   179  N   -0.029227
   182  N   -0.516250
   183  C    0.324427
   185  N   -0.551037
   186  C    0.521989
   187  C    0.257648
   189  C    0.044484
   192  O   -0.256950
   193  Hg   1.086097
   194  Cl  -0.903741
   195  Cl  -0.668922
   198  O   -0.307751
   200  O   -0.313677
 Electronic spatial extent (au):  <R**2>=        2184355.1518
 Charge=             -6.0000 electrons
 Dipole moment (field-independent basis, Debye):
    X=           -172.8853    Y=           -335.8540    Z=            618.6641  Tot=            724.8672
 Quadrupole moment (field-independent basis, Debye-Ang):
   XX=          -2238.5424   YY=          -6239.2262   ZZ=         -14862.4932
   XY=          -2393.6537   XZ=           3444.1612   YZ=           7000.6627
 Traceless Quadrupole moment (field-independent basis, Debye-Ang):
   XX=           5541.5449   YY=           1540.8610   ZZ=          -7082.4059
   XY=          -2393.6537   XZ=           3444.1612   YZ=           7000.6627
 Octapole moment (field-independent basis, Debye-Ang**2):
  XXX=         -29855.6260  YYY=        -124383.2176  ZZZ=         384767.3181  XYY=         -45419.1873
  XXY=         -30584.0466  XXZ=          42093.8990  XZZ=         -77470.3437  YZZ=        -160926.9369
  YYZ=         127567.6837  XYZ=          45623.9200
 Hexadecapole moment (field-independent basis, Debye-Ang**3):
 XXXX=        -418024.3131 YYYY=       -2565621.8299 ZZZZ=      -10424043.0708 XXXY=        -419213.0958
 XXXZ=         543363.9936 YYYX=        -917805.3974 YYYZ=        2514175.2679 ZZZX=        1905028.5905
 ZZZY=        3952979.5985 XXYY=        -529096.5324 XXZZ=        -865847.8956 YYZZ=       -2813132.6637
 XXYZ=         555008.4395 YYXZ=         860175.0776 ZZXY=        -966510.1136
 N-N=       36343.889085 E-N=      -92887.047665  KE=        8356.943009
 Unable to Open any file for archive entry.
 1\1\GINC-N3436\FOpt\RB3LYP\GenECP\C60H74Cl2Hg1N18O40P6\SSHAIK\16-Feb-2
 025\0\\# opt b3lyp/genecp scrf=(solvent=water) 10f 6d scf=maxcycles=50
 0 symmetry=none\\7tg6+283Cl_3BP_MINg\\-6,1\P,4.252,4.211,-29.566\O,4.0
 5266142,3.93368852,-31.0315325\O,3.48270627,5.44531064,-29.17988158\O,
 3.728,2.971,-28.715\C,2.84,3.187,-27.645\H,2.017,2.478,-27.735\H,2.451
 ,4.203,-27.707\C,3.522,2.994,-26.3\H,3.902,1.976,-26.212\O,4.725,3.848
 ,-26.201\C,4.645,4.488,-24.95\H,5.065,3.783,-24.232\N,5.544,5.688,-24.
 812\C,5.575,6.637,-25.799\H,4.903,6.514,-26.635\C,6.342,7.737,-25.744\
 C,6.384,8.724,-26.869\H,5.386,9.128,-27.036\H,7.067,9.535,-26.616\H,6.
 73,8.228,-27.776\C,7.123,7.967,-24.555\O,7.835,8.955,-24.416\N,7.01,6.
 997,-23.585\H,7.609,7.147,-22.687\C,6.251,5.864,-23.635\O,6.231,5.075,
 -22.714\C,2.641,3.404,-25.109\H,1.575,3.463,-25.329\C,3.176,4.792,-24.
 826\H,2.455,5.536,-25.164\H,3.341,4.907,-23.755\O,2.839,2.532,-23.967\
 P,2.95,3.182,-22.493\O,1.948,4.267,-22.345\O,4.384,3.373,-22.192\O,2.4
 79,2.077,-21.457\C,1.639,2.478,-20.351\H,1.346,1.556,-19.848\H,0.751,2
 .98,-20.735\C,2.35,3.406,-19.338\H,2.98,2.785,-18.701\O,3.278,4.321,-1
 9.987\C,3.424,5.488,-19.204\H,4.255,5.4,-18.504\N,3.848,6.687,-20.102\
 C,3.384,6.78,-21.411\H,2.707,6.015,-21.761\C,3.706,7.8,-22.249\C,3.195
 ,7.884,-23.653\H,2.106,7.922,-23.642\H,3.585,8.784,-24.129\H,3.522,7.0
 07,-24.212\C,4.579,8.825,-21.765\O,4.92,9.781,-22.462\N,5.001,8.669,-2
 0.463\H,5.717,8.329,-18.131\C,4.691,7.657,-19.59\O,5.132,7.639,-18.453
 \C,1.403,4.3,-18.539\H,0.454,4.396,-19.067\C,2.097,5.686,-18.466\H,1.3
 41,6.467,-18.383\H,2.751,5.72,-17.595\O,1.126,3.726,-17.235\P,2.2,3.76
 3,-16.033\O,3.555,3.434,-16.526\O,1.611,2.928,-14.966\O,2.182,5.277,-1
 5.511\C,3.406,5.926,-15.154\H,4.032,5.962,-16.045\H,3.928,5.384,-14.36
 5\C,3.126,7.334,-14.687\H,3.844,7.604,-13.913\O,3.377,8.28,-15.763\C,2
 .345,9.233,-15.766\H,2.573,10.084,-15.123\N,2.265,9.854,-17.134\C,1.55
 1,9.217,-18.13\H,1.03,8.308,-17.87\C,1.431,9.695,-19.379\C,0.65,8.97,-
 20.432\H,-0.386,8.866,-20.11\H,0.685,9.534,-21.364\H,1.082,7.982,-20.5
 89\C,2.077,10.939,-19.693\O,2.016,11.445,-20.808\N,2.765,11.525,-18.65
 1\H,3.248,12.475,-18.879\C,2.906,11.052,-17.374\O,3.549,11.656,-16.527
 \C,1.682,7.561,-14.239\H,1.083,6.654,-14.158\C,1.106,8.457,-15.343\H,0
 .29,7.937,-15.845\H,0.731,9.381,-14.903\O,1.681,8.211,-12.996\P,4.535,
 20.541,-22.025\O,4.61966872,22.02845711,-22.23648428\O,4.89631537,19.8
 3144136,-23.30187148\O,5.545,20.111,-20.876\C,5.081,20.087,-19.529\H,4
 .364,19.272,-19.431\H,4.589,21.033,-19.301\C,6.219,19.869,-18.551\H,5.
 988,20.377,-17.615\O,6.279,18.481,-18.201\C,7.174,17.828,-19.066\H,7.8
 34,17.128,-18.553\N,6.403,16.965,-19.949\C,6.144,17.142,-21.28\H,6.56,
 17.986,-21.811\N,5.425,16.177,-21.806\C,5.192,15.324,-20.739\C,4.487,1
 4.114,-20.628\N,3.865,13.531,-21.658\H,3.372,12.66,-21.523\H,3.888,13.
 962,-22.571\N,4.454,13.521,-19.412\C,5.081,14.101,-18.385\H,5.065,13.6
 46,-17.406\N,5.773,15.231,-18.368\C,5.785,15.797,-19.589\C,7.609,20.19
 9,-19.073\H,7.625,21.018,-19.792\C,8.031,18.897,-19.771\H,8.322,19.113
 ,-20.799\H,8.875,18.456,-19.24\O,8.471,20.586,-17.954\P,9.851,19.833,-
 17.581\O,10.366,20.533,-16.38\O,10.74,19.706,-18.758\O,9.403,18.373,-1
 7.114\C,9.967,17.813,-15.956\H,9.283,18.049,-15.141\H,10.946,18.241,-1
 5.743\C,10.097,16.306,-16.077\H,9.8,15.883,-15.117\O,9.135,15.769,-17.
 025\C,9.686,14.568,-17.489\H,9.53,13.784,-16.748\N,8.935,14.059,-18.68
 1\C,9.003,14.74,-19.882\H,9.64,15.611,-19.933\C,8.367,14.339,-20.996\C
 ,8.459,15.107,-22.281\H,9.5,15.159,-22.6\H,7.869,14.605,-23.048\H,8.07
 5,16.116,-22.13\C,7.588,13.129,-20.931\O,6.974,12.69,-21.898\N,7.578,1
 2.497,-19.702\H,7.629,11.441,-17.47\C,8.217,12.891,-18.561\O,8.139,12.
 252,-17.523\C,11.475,15.795,-16.544\H,12.15,16.594,-16.851\C,11.141,14
 .91,-17.758\H,11.746,15.219,-18.611\H,11.356,13.868,-17.519\O,12.117,1
 5.056,-15.465\P,13.048,13.763,-15.738\O,13.727,13.449,-14.463\O,13.887
 ,13.933,-16.942\O,12.006,12.591,-16.027\C,11.172,12.118,-14.987\H,10.1
 95,12.581,-15.126\H,11.569,12.395,-14.01\C,11.024,10.609,-15.056\H,10.
 413,10.279,-14.216\O,10.25,10.259,-16.226\C,11.065,9.634,-17.193\H,10.
 734,8.628,-17.45\N,10.931,10.359,-18.46\C,11.451,11.585,-18.779\H,12.0
 78,12.109,-18.072\N,11.162,11.983,-19.999\C,10.398,10.948,-20.512\C,9.
 778,10.75,-21.766\N,9.836,11.632,-22.771\H,9.371,11.433,-23.645\H,10.3
 45,12.497,-22.655\N,9.092,9.603,-21.944\C,9.033,8.722,-20.938\H,8.49,7
 .796,-21.06\N,9.57,8.799,-19.723\C,10.245,9.945,-19.574\C,12.333,9.833
 ,-15.156\H,13.187,10.397,-14.78\C,12.5,9.596,-16.654\H,13.467,9.98,-16
 .978\H,12.446,8.527,-16.861\O,12.246,8.609,-14.424\Hg,6.239,10.725,-20
 .584\Cl,3.6398723584,14.1294281333,-24.867913102\Cl,6.7407917796,9.696
 4255668,-17.0885387376\H,13.12993292,8.28757705,-14.23177647\H,2.58586
 832,8.35958511,-12.71185955\O,5.91534543,4.45490812,-29.25312494\H,6.4
 1677308,4.31720042,-30.06009886\O,2.94135015,20.11974267,-21.57011273\
 H,2.31778033,20.70046788,-22.01228793\\Version=ES64L-GDVRevJ.26+\HF=-8
 447.5858353\RMSD=1.716e-09\RMSF=1.063e-07\Dipole=1.2616256,-11.4159897
 ,15.8319973\Quadrupole=4120.0028108,1145.5924228,-5265.5952336,-1779.6
 228671,2560.6494047,5204.8211231\PG=Unknown\\@
 The archive entry for this job was punched.


 EVERY WORD THAT YOU WRITE IS A BLOW THAT SMITES THE DEVIL.
     -- ST. BERNARD OF CLAIRVAUX
 Job cpu time:       6 days 16 hours 12 minutes 14.3 seconds.
 Elapsed time:       0 days  5 hours 19 minutes 15.4 seconds.
 File lengths (MBytes):  RWF=   6693 Int=      0 D2E=      0 Chk=    416 Scr=      1
 Normal termination of Gaussian DV at Sun Feb 16 06:56:35 2025.
